<?xml version="1.0" encoding="UTF-8"?>

<!-- generated on 2020年06月29日 星期一 08时19分35秒 by Eclipse SUMO GUI Version 1.6.0
<configuration xmlns:xsi="http://www.w3.org/2001/XMLSchema-instance" xsi:noNamespaceSchemaLocation="http://sumo.dlr.de/xsd/sumoConfiguration.xsd">

    <input>
        <net-file value="data/single_intersection.net.xml"/>
        <route-files value="data/cross_9_1_30mins.rou.xml"/>
    </input>

    <output>
        <tripinfo-output value="tripinfo.xml"/>
    </output>

    <time>
        <begin value="0"/>
    </time>

    <processing>
        <lateral-resolution value="0.64"/>
        <waiting-time-memory value="60"/>
    </processing>

    <report>
        <verbose value="true"/>
        <no-step-log value="true"/>
    </report>

    <gui_only>
        <start value="true"/>
    </gui_only>

</configuration>
-->

<tripinfos xmlns:xsi="http://www.w3.org/2001/XMLSchema-instance" xsi:noNamespaceSchemaLocation="http://sumo.dlr.de/xsd/tripinfo_file.xsd">
    <tripinfo id="10" depart="15.00" departLane="54o_0" departPos="5.10" departPosLat="0.00" departSpeed="0.00" departDelay="0.00" arrival="53.00" arrivalLane="51i_2" arrivalPos="10.00" arrivalPosLat="0.00" arrivalSpeed="12.48" duration="38.00" routeLength="233.37" waitingTime="9.00" waitingCount="1" stopTime="0.00" timeLoss="23.19" rerouteNo="0" devices="tripinfo_10" vType="type3" speedFactor="1.09" vaporized=""/>
    <tripinfo id="20" depart="25.00" departLane="54o_0" departPos="5.10" departPosLat="0.00" departSpeed="0.00" departDelay="0.00" arrival="56.00" arrivalLane="51i_2" arrivalPos="10.00" arrivalPosLat="0.00" arrivalSpeed="11.89" duration="31.00" routeLength="233.37" waitingTime="3.00" waitingCount="1" stopTime="0.00" timeLoss="14.35" rerouteNo="0" devices="tripinfo_20" vType="type4" speedFactor="1.02" vaporized=""/>
    <tripinfo id="30" depart="35.00" departLane="54o_0" departPos="7.20" departPosLat="0.00" departSpeed="0.00" departDelay="0.00" arrival="60.00" arrivalLane="51i_2" arrivalPos="10.00" arrivalPosLat="0.00" arrivalSpeed="12.49" duration="25.00" routeLength="231.27" waitingTime="0.00" waitingCount="0" stopTime="0.00" timeLoss="9.95" rerouteNo="0" devices="tripinfo_30" vType="type5" speedFactor="1.09" vaporized=""/>
    <tripinfo id="0" depart="5.00" departLane="51o_0" departPos="2.30" departPosLat="0.00" departSpeed="0.00" departDelay="0.00" arrival="67.00" arrivalLane="54i_0" arrivalPos="10.00" arrivalPosLat="0.00" arrivalSpeed="14.02" duration="62.00" routeLength="220.20" waitingTime="39.00" waitingCount="1" stopTime="0.00" timeLoss="47.07" rerouteNo="0" devices="tripinfo_0" vType="type2" speedFactor="1.06" vaporized=""/>
    <tripinfo id="1" depart="6.00" departLane="51o_0" departPos="2.30" departPosLat="0.00" departSpeed="0.00" departDelay="1.00" arrival="71.00" arrivalLane="54i_0" arrivalPos="10.00" arrivalPosLat="0.00" arrivalSpeed="14.68" duration="65.00" routeLength="220.20" waitingTime="40.00" waitingCount="2" stopTime="0.00" timeLoss="47.73" rerouteNo="0" devices="tripinfo_1" vType="type2" speedFactor="0.94" vaporized=""/>
    <tripinfo id="2" depart="8.00" departLane="51o_0" departPos="2.30" departPosLat="0.00" departSpeed="0.00" departDelay="3.00" arrival="72.00" arrivalLane="54i_0" arrivalPos="10.00" arrivalPosLat="1.41" arrivalSpeed="15.19" duration="64.00" routeLength="220.20" waitingTime="38.00" waitingCount="1" stopTime="0.00" timeLoss="47.82" rerouteNo="0" devices="tripinfo_2" vType="type2" speedFactor="1.01" vaporized=""/>
    <tripinfo id="3" depart="10.00" departLane="51o_0" departPos="2.30" departPosLat="0.00" departSpeed="0.00" departDelay="5.00" arrival="73.00" arrivalLane="54i_0" arrivalPos="10.00" arrivalPosLat="0.00" arrivalSpeed="13.95" duration="63.00" routeLength="220.20" waitingTime="38.00" waitingCount="1" stopTime="0.00" timeLoss="48.36" rerouteNo="0" devices="tripinfo_3" vType="type2" speedFactor="1.08" vaporized=""/>
    <tripinfo id="4" depart="12.00" departLane="51o_0" departPos="2.30" departPosLat="0.00" departSpeed="0.00" departDelay="7.00" arrival="75.00" arrivalLane="54i_0" arrivalPos="10.00" arrivalPosLat="0.00" arrivalSpeed="14.91" duration="63.00" routeLength="220.20" waitingTime="36.00" waitingCount="1" stopTime="0.00" timeLoss="47.32" rerouteNo="0" devices="tripinfo_4" vType="type2" speedFactor="1.03" vaporized=""/>
    <tripinfo id="40" depart="45.00" departLane="54o_0" departPos="10.00" departPosLat="0.00" departSpeed="0.00" departDelay="0.00" arrival="105.00" arrivalLane="51i_2" arrivalPos="10.00" arrivalPosLat="0.00" arrivalSpeed="11.35" duration="60.00" routeLength="228.47" waitingTime="25.00" waitingCount="1" stopTime="0.00" timeLoss="44.14" rerouteNo="0" devices="tripinfo_40" vType="type6" speedFactor="1.00" vaporized=""/>
    <tripinfo id="5" depart="14.00" departLane="51o_0" departPos="2.30" departPosLat="0.00" departSpeed="0.00" departDelay="4.00" arrival="110.00" arrivalLane="54i_0" arrivalPos="10.00" arrivalPosLat="0.00" arrivalSpeed="10.44" duration="96.00" routeLength="220.20" waitingTime="64.00" waitingCount="2" stopTime="0.00" timeLoss="77.24" rerouteNo="0" devices="tripinfo_5" vType="type2" speedFactor="0.83" vaporized=""/>
    <tripinfo id="6" depart="16.00" departLane="51o_0" departPos="2.30" departPosLat="0.00" departSpeed="0.00" departDelay="6.00" arrival="112.00" arrivalLane="54i_0" arrivalPos="10.00" arrivalPosLat="0.00" arrivalSpeed="13.81" duration="96.00" routeLength="220.20" waitingTime="60.00" waitingCount="2" stopTime="0.00" timeLoss="80.64" rerouteNo="0" devices="tripinfo_6" vType="type2" speedFactor="1.05" vaporized=""/>
    <tripinfo id="7" depart="18.00" departLane="51o_0" departPos="2.30" departPosLat="0.00" departSpeed="0.00" departDelay="8.00" arrival="114.00" arrivalLane="54i_0" arrivalPos="10.00" arrivalPosLat="0.00" arrivalSpeed="12.44" duration="96.00" routeLength="220.20" waitingTime="59.00" waitingCount="2" stopTime="0.00" timeLoss="78.02" rerouteNo="0" devices="tripinfo_7" vType="type2" speedFactor="0.89" vaporized=""/>
    <tripinfo id="8" depart="20.00" departLane="51o_0" departPos="2.30" departPosLat="0.00" departSpeed="0.00" departDelay="10.00" arrival="115.00" arrivalLane="54i_0" arrivalPos="10.00" arrivalPosLat="0.00" arrivalSpeed="12.72" duration="95.00" routeLength="220.20" waitingTime="57.00" waitingCount="2" stopTime="0.00" timeLoss="78.37" rerouteNo="0" devices="tripinfo_8" vType="type2" speedFactor="0.94" vaporized=""/>
    <tripinfo id="9" depart="21.00" departLane="51o_0" departPos="2.30" departPosLat="0.00" departSpeed="0.00" departDelay="11.00" arrival="118.00" arrivalLane="54i_0" arrivalPos="10.00" arrivalPosLat="0.00" arrivalSpeed="12.51" duration="97.00" routeLength="220.20" waitingTime="56.00" waitingCount="2" stopTime="0.00" timeLoss="78.37" rerouteNo="0" devices="tripinfo_9" vType="type2" speedFactor="0.86" vaporized=""/>
    <tripinfo id="50" depart="55.00" departLane="54o_0" departPos="1.70" departPosLat="0.00" departSpeed="0.00" departDelay="0.00" arrival="118.00" arrivalLane="51i_0" arrivalPos="10.00" arrivalPosLat="0.00" arrivalSpeed="5.02" duration="63.00" routeLength="236.77" waitingTime="11.00" waitingCount="1" stopTime="0.00" timeLoss="20.28" rerouteNo="0" devices="tripinfo_50" vType="type1" speedFactor="1.03" vaporized=""/>
    <tripinfo id="60" depart="65.00" departLane="54o_0" departPos="2.30" departPosLat="0.00" departSpeed="0.00" departDelay="0.00" arrival="143.00" arrivalLane="51i_2" arrivalPos="10.00" arrivalPosLat="0.00" arrivalSpeed="13.19" duration="78.00" routeLength="236.17" waitingTime="39.00" waitingCount="2" stopTime="0.00" timeLoss="58.64" rerouteNo="0" devices="tripinfo_60" vType="type2" speedFactor="0.85" vaporized=""/>
    <tripinfo id="70" depart="75.00" departLane="54o_0" departPos="5.10" departPosLat="0.00" departSpeed="0.00" departDelay="0.00" arrival="145.00" arrivalLane="51i_2" arrivalPos="10.00" arrivalPosLat="0.00" arrivalSpeed="11.54" duration="70.00" routeLength="233.37" waitingTime="32.00" waitingCount="2" stopTime="0.00" timeLoss="54.82" rerouteNo="0" devices="tripinfo_70" vType="type3" speedFactor="1.08" vaporized=""/>
    <tripinfo id="80" depart="85.00" departLane="54o_0" departPos="5.10" departPosLat="0.00" departSpeed="0.00" departDelay="0.00" arrival="147.00" arrivalLane="51i_2" arrivalPos="10.00" arrivalPosLat="0.00" arrivalSpeed="13.12" duration="62.00" routeLength="233.37" waitingTime="27.00" waitingCount="1" stopTime="0.00" timeLoss="46.07" rerouteNo="0" devices="tripinfo_80" vType="type4" speedFactor="1.02" vaporized=""/>
    <tripinfo id="11" depart="24.00" departLane="51o_0" departPos="5.10" departPosLat="0.00" departSpeed="0.00" departDelay="9.00" arrival="149.00" arrivalLane="54i_0" arrivalPos="10.00" arrivalPosLat="0.00" arrivalSpeed="12.97" duration="125.00" routeLength="217.40" waitingTime="81.00" waitingCount="3" stopTime="0.00" timeLoss="109.84" rerouteNo="0" devices="tripinfo_11" vType="type3" speedFactor="1.03" vaporized=""/>
    <tripinfo id="12" depart="27.00" departLane="51o_0" departPos="5.10" departPosLat="0.00" departSpeed="0.00" departDelay="12.00" arrival="151.00" arrivalLane="54i_0" arrivalPos="10.00" arrivalPosLat="0.00" arrivalSpeed="12.46" duration="124.00" routeLength="217.40" waitingTime="79.00" waitingCount="3" stopTime="0.00" timeLoss="108.85" rerouteNo="0" devices="tripinfo_12" vType="type3" speedFactor="1.05" vaporized=""/>
    <tripinfo id="13" depart="30.00" departLane="51o_0" departPos="5.10" departPosLat="0.00" departSpeed="0.00" departDelay="15.00" arrival="152.00" arrivalLane="54i_0" arrivalPos="10.00" arrivalPosLat="0.00" arrivalSpeed="12.24" duration="122.00" routeLength="217.40" waitingTime="78.00" waitingCount="3" stopTime="0.00" timeLoss="108.32" rerouteNo="0" devices="tripinfo_13" vType="type3" speedFactor="1.12" vaporized=""/>
    <tripinfo id="90" depart="95.00" departLane="54o_0" departPos="7.20" departPosLat="0.00" departSpeed="0.00" departDelay="0.00" arrival="184.00" arrivalLane="51i_2" arrivalPos="10.00" arrivalPosLat="0.00" arrivalSpeed="11.64" duration="89.00" routeLength="231.27" waitingTime="51.00" waitingCount="2" stopTime="0.00" timeLoss="73.50" rerouteNo="0" devices="tripinfo_90" vType="type5" speedFactor="1.02" vaporized=""/>
    <tripinfo id="120" depart="125.00" departLane="54o_0" departPos="2.30" departPosLat="0.00" departSpeed="0.00" departDelay="0.00" arrival="187.00" arrivalLane="51i_2" arrivalPos="10.00" arrivalPosLat="0.00" arrivalSpeed="13.60" duration="62.00" routeLength="236.17" waitingTime="30.00" waitingCount="2" stopTime="0.00" timeLoss="46.26" rerouteNo="0" devices="tripinfo_120" vType="type2" speedFactor="1.07" vaporized=""/>
    <tripinfo id="100" depart="105.00" departLane="54o_0" departPos="10.00" departPosLat="0.00" departSpeed="0.00" departDelay="0.00" arrival="189.00" arrivalLane="51i_2" arrivalPos="10.00" arrivalPosLat="0.00" arrivalSpeed="11.68" duration="84.00" routeLength="228.47" waitingTime="43.00" waitingCount="3" stopTime="0.00" timeLoss="68.26" rerouteNo="0" devices="tripinfo_100" vType="type6" speedFactor="1.00" vaporized=""/>
    <tripinfo id="14" depart="33.00" departLane="51o_0" departPos="5.10" departPosLat="0.00" departSpeed="0.00" departDelay="18.00" arrival="197.00" arrivalLane="54i_0" arrivalPos="10.00" arrivalPosLat="0.00" arrivalSpeed="13.11" duration="164.00" routeLength="217.40" waitingTime="115.00" waitingCount="4" stopTime="0.00" timeLoss="148.03" rerouteNo="0" devices="tripinfo_14" vType="type3" speedFactor="0.99" vaporized=""/>
    <tripinfo id="130" depart="135.00" departLane="54o_0" departPos="5.10" departPosLat="0.00" departSpeed="0.00" departDelay="0.00" arrival="198.00" arrivalLane="51i_2" arrivalPos="10.00" arrivalPosLat="0.00" arrivalSpeed="12.39" duration="63.00" routeLength="233.37" waitingTime="25.00" waitingCount="1" stopTime="0.00" timeLoss="45.17" rerouteNo="0" devices="tripinfo_130" vType="type3" speedFactor="0.93" vaporized=""/>
    <tripinfo id="15" depart="36.00" departLane="51o_0" departPos="5.10" departPosLat="0.00" departSpeed="0.00" departDelay="16.00" arrival="199.00" arrivalLane="54i_0" arrivalPos="10.00" arrivalPosLat="0.00" arrivalSpeed="12.28" duration="163.00" routeLength="217.40" waitingTime="109.00" waitingCount="4" stopTime="0.00" timeLoss="146.42" rerouteNo="0" devices="tripinfo_15" vType="type3" speedFactor="0.93" vaporized=""/>
    <tripinfo id="16" depart="39.00" departLane="51o_0" departPos="5.10" departPosLat="0.00" departSpeed="0.00" departDelay="19.00" arrival="202.00" arrivalLane="54i_0" arrivalPos="10.00" arrivalPosLat="0.00" arrivalSpeed="11.08" duration="163.00" routeLength="217.40" waitingTime="107.00" waitingCount="4" stopTime="0.00" timeLoss="145.70" rerouteNo="0" devices="tripinfo_16" vType="type3" speedFactor="0.88" vaporized=""/>
    <tripinfo id="110" depart="115.00" departLane="54o_0" departPos="1.70" departPosLat="0.00" departSpeed="0.00" departDelay="0.00" arrival="203.00" arrivalLane="51i_0" arrivalPos="10.00" arrivalPosLat="0.00" arrivalSpeed="5.48" duration="88.00" routeLength="236.77" waitingTime="29.00" waitingCount="2" stopTime="0.00" timeLoss="45.28" rerouteNo="0" devices="tripinfo_110" vType="type1" speedFactor="1.02" vaporized=""/>
    <tripinfo id="140" depart="145.00" departLane="54o_0" departPos="5.10" departPosLat="0.00" departSpeed="0.00" departDelay="0.00" arrival="255.00" arrivalLane="51i_2" arrivalPos="10.00" arrivalPosLat="0.00" arrivalSpeed="11.71" duration="110.00" routeLength="233.37" waitingTime="73.00" waitingCount="2" stopTime="0.00" timeLoss="92.36" rerouteNo="0" devices="tripinfo_140" vType="type4" speedFactor="0.94" vaporized=""/>
    <tripinfo id="150" depart="155.00" departLane="54o_0" departPos="7.20" departPosLat="0.00" departSpeed="0.00" departDelay="0.00" arrival="258.00" arrivalLane="51i_2" arrivalPos="10.00" arrivalPosLat="0.00" arrivalSpeed="11.79" duration="103.00" routeLength="231.27" waitingTime="58.00" waitingCount="2" stopTime="0.00" timeLoss="86.45" rerouteNo="0" devices="tripinfo_150" vType="type5" speedFactor="1.02" vaporized=""/>
    <tripinfo id="160" depart="165.00" departLane="54o_0" departPos="10.00" departPosLat="0.00" departSpeed="0.00" departDelay="0.00" arrival="260.00" arrivalLane="51i_2" arrivalPos="10.00" arrivalPosLat="0.00" arrivalSpeed="11.54" duration="95.00" routeLength="228.47" waitingTime="53.00" waitingCount="1" stopTime="0.00" timeLoss="79.15" rerouteNo="0" devices="tripinfo_160" vType="type6" speedFactor="1.00" vaporized=""/>
    <tripinfo id="17" depart="42.00" departLane="51o_0" departPos="5.10" departPosLat="0.00" departSpeed="0.00" departDelay="22.00" arrival="261.00" arrivalLane="54i_0" arrivalPos="10.00" arrivalPosLat="0.00" arrivalSpeed="11.17" duration="219.00" routeLength="217.40" waitingTime="160.00" waitingCount="5" stopTime="0.00" timeLoss="202.67" rerouteNo="0" devices="tripinfo_17" vType="type3" speedFactor="0.94" vaporized=""/>
    <tripinfo id="18" depart="45.00" departLane="51o_0" departPos="5.10" departPosLat="0.00" departSpeed="0.00" departDelay="25.00" arrival="263.00" arrivalLane="54i_0" arrivalPos="10.00" arrivalPosLat="0.00" arrivalSpeed="11.15" duration="218.00" routeLength="217.40" waitingTime="157.00" waitingCount="5" stopTime="0.00" timeLoss="201.87" rerouteNo="0" devices="tripinfo_18" vType="type3" speedFactor="0.94" vaporized=""/>
    <tripinfo id="19" depart="78.00" departLane="51o_0" departPos="5.10" departPosLat="0.00" departSpeed="0.00" departDelay="58.00" arrival="265.00" arrivalLane="54i_0" arrivalPos="10.00" arrivalPosLat="0.00" arrivalSpeed="13.20" duration="187.00" routeLength="217.40" waitingTime="131.00" waitingCount="4" stopTime="0.00" timeLoss="173.75" rerouteNo="0" devices="tripinfo_19" vType="type3" speedFactor="1.16" vaporized=""/>
    <tripinfo id="21" depart="81.00" departLane="51o_0" departPos="5.10" departPosLat="0.00" departSpeed="0.00" departDelay="56.00" arrival="293.00" arrivalLane="54i_0" arrivalPos="10.00" arrivalPosLat="0.00" arrivalSpeed="11.83" duration="212.00" routeLength="217.40" waitingTime="152.00" waitingCount="5" stopTime="0.00" timeLoss="196.45" rerouteNo="0" devices="tripinfo_21" vType="type4" speedFactor="1.01" vaporized=""/>
    <tripinfo id="190" depart="195.00" departLane="54o_0" departPos="5.10" departPosLat="0.00" departSpeed="0.00" departDelay="0.00" arrival="293.00" arrivalLane="51i_2" arrivalPos="10.00" arrivalPosLat="0.00" arrivalSpeed="10.97" duration="98.00" routeLength="233.37" waitingTime="56.00" waitingCount="2" stopTime="0.00" timeLoss="79.52" rerouteNo="0" devices="tripinfo_190" vType="type3" speedFactor="0.88" vaporized=""/>
    <tripinfo id="22" depart="84.00" departLane="51o_0" departPos="5.10" departPosLat="0.00" departSpeed="0.00" departDelay="59.00" arrival="295.00" arrivalLane="54i_0" arrivalPos="10.00" arrivalPosLat="0.00" arrivalSpeed="12.08" duration="211.00" routeLength="217.40" waitingTime="153.00" waitingCount="5" stopTime="0.00" timeLoss="194.86" rerouteNo="0" devices="tripinfo_22" vType="type4" speedFactor="0.98" vaporized=""/>
    <tripinfo id="180" depart="185.00" departLane="54o_0" departPos="2.30" departPosLat="0.00" departSpeed="0.00" departDelay="0.00" arrival="295.00" arrivalLane="51i_2" arrivalPos="10.00" arrivalPosLat="0.00" arrivalSpeed="12.09" duration="110.00" routeLength="236.17" waitingTime="71.00" waitingCount="2" stopTime="0.00" timeLoss="92.87" rerouteNo="0" devices="tripinfo_180" vType="type2" speedFactor="0.96" vaporized=""/>
    <tripinfo id="23" depart="115.00" departLane="51o_0" departPos="5.10" departPosLat="0.00" departSpeed="0.00" departDelay="90.00" arrival="298.00" arrivalLane="54i_0" arrivalPos="10.00" arrivalPosLat="0.00" arrivalSpeed="11.89" duration="183.00" routeLength="217.40" waitingTime="128.00" waitingCount="4" stopTime="0.00" timeLoss="165.96" rerouteNo="0" devices="tripinfo_23" vType="type4" speedFactor="0.89" vaporized=""/>
    <tripinfo id="170" depart="175.00" departLane="54o_0" departPos="1.70" departPosLat="0.00" departSpeed="0.00" departDelay="0.00" arrival="299.00" arrivalLane="51i_0" arrivalPos="10.00" arrivalPosLat="0.00" arrivalSpeed="5.42" duration="124.00" routeLength="236.77" waitingTime="69.00" waitingCount="2" stopTime="0.00" timeLoss="80.44" rerouteNo="0" devices="tripinfo_170" vType="type1" speedFactor="1.11" vaporized=""/>
    <tripinfo id="200" depart="205.00" departLane="54o_0" departPos="5.10" departPosLat="0.00" departSpeed="0.00" departDelay="0.00" arrival="325.00" arrivalLane="51i_2" arrivalPos="10.00" arrivalPosLat="0.00" arrivalSpeed="14.16" duration="120.00" routeLength="233.37" waitingTime="77.00" waitingCount="5" stopTime="0.00" timeLoss="105.11" rerouteNo="0" devices="tripinfo_200" vType="type4" speedFactor="1.09" vaporized=""/>
    <tripinfo id="240" depart="245.00" departLane="54o_0" departPos="2.30" departPosLat="0.00" departSpeed="0.00" departDelay="0.00" arrival="330.00" arrivalLane="51i_2" arrivalPos="10.00" arrivalPosLat="0.00" arrivalSpeed="13.40" duration="85.00" routeLength="236.17" waitingTime="46.00" waitingCount="4" stopTime="0.00" timeLoss="67.10" rerouteNo="0" devices="tripinfo_240" vType="type2" speedFactor="0.95" vaporized=""/>
    <tripinfo id="210" depart="215.00" departLane="54o_0" departPos="7.20" departPosLat="0.00" departSpeed="0.00" departDelay="0.00" arrival="332.00" arrivalLane="51i_2" arrivalPos="10.00" arrivalPosLat="0.00" arrivalSpeed="11.10" duration="117.00" routeLength="231.27" waitingTime="63.00" waitingCount="6" stopTime="0.00" timeLoss="101.42" rerouteNo="0" devices="tripinfo_210" vType="type5" speedFactor="1.05" vaporized=""/>
    <tripinfo id="24" depart="119.00" departLane="51o_0" departPos="5.10" departPosLat="0.00" departSpeed="0.00" departDelay="94.00" arrival="334.00" arrivalLane="54i_0" arrivalPos="10.00" arrivalPosLat="0.00" arrivalSpeed="10.46" duration="215.00" routeLength="217.40" waitingTime="153.00" waitingCount="5" stopTime="0.00" timeLoss="196.74" rerouteNo="0" devices="tripinfo_24" vType="type4" speedFactor="0.83" vaporized=""/>
    <tripinfo id="25" depart="122.00" departLane="51o_0" departPos="5.10" departPosLat="0.00" departSpeed="0.00" departDelay="92.00" arrival="336.00" arrivalLane="54i_0" arrivalPos="10.00" arrivalPosLat="0.00" arrivalSpeed="10.59" duration="214.00" routeLength="217.40" waitingTime="152.00" waitingCount="5" stopTime="0.00" timeLoss="196.66" rerouteNo="0" devices="tripinfo_25" vType="type4" speedFactor="0.87" vaporized=""/>
    <tripinfo id="26" depart="153.00" departLane="51o_0" departPos="5.10" departPosLat="0.00" departSpeed="0.00" departDelay="123.00" arrival="338.00" arrivalLane="54i_0" arrivalPos="10.00" arrivalPosLat="0.00" arrivalSpeed="11.37" duration="185.00" routeLength="217.40" waitingTime="126.00" waitingCount="4" stopTime="0.00" timeLoss="168.46" rerouteNo="0" devices="tripinfo_26" vType="type4" speedFactor="0.92" vaporized=""/>
    <tripinfo id="220" depart="225.00" departLane="54o_0" departPos="10.00" departPosLat="0.00" departSpeed="0.00" departDelay="0.00" arrival="369.00" arrivalLane="51i_2" arrivalPos="10.00" arrivalPosLat="0.00" arrivalSpeed="11.86" duration="144.00" routeLength="228.47" waitingTime="82.00" waitingCount="5" stopTime="0.00" timeLoss="127.72" rerouteNo="0" devices="tripinfo_220" vType="type6" speedFactor="1.00" vaporized=""/>
    <tripinfo id="27" depart="156.00" departLane="51o_0" departPos="5.10" departPosLat="0.00" departSpeed="0.00" departDelay="126.00" arrival="373.00" arrivalLane="54i_0" arrivalPos="10.00" arrivalPosLat="0.00" arrivalSpeed="12.33" duration="217.00" routeLength="217.40" waitingTime="156.00" waitingCount="5" stopTime="0.00" timeLoss="200.83" rerouteNo="0" devices="tripinfo_27" vType="type4" speedFactor="0.95" vaporized=""/>
    <tripinfo id="28" depart="159.00" departLane="51o_0" departPos="5.10" departPosLat="0.00" departSpeed="0.00" departDelay="129.00" arrival="375.00" arrivalLane="54i_0" arrivalPos="10.00" arrivalPosLat="0.00" arrivalSpeed="14.57" duration="216.00" routeLength="217.40" waitingTime="156.00" waitingCount="6" stopTime="0.00" timeLoss="202.19" rerouteNo="0" devices="tripinfo_28" vType="type4" speedFactor="1.13" vaporized=""/>
    <tripinfo id="29" depart="200.00" departLane="51o_0" departPos="5.10" departPosLat="0.00" departSpeed="0.00" departDelay="170.00" arrival="378.00" arrivalLane="54i_0" arrivalPos="10.00" arrivalPosLat="0.00" arrivalSpeed="10.66" duration="178.00" routeLength="217.40" waitingTime="118.00" waitingCount="4" stopTime="0.00" timeLoss="161.03" rerouteNo="0" devices="tripinfo_29" vType="type4" speedFactor="0.93" vaporized=""/>
    <tripinfo id="230" depart="235.00" departLane="54o_0" departPos="1.70" departPosLat="0.00" departSpeed="0.00" departDelay="0.00" arrival="382.00" arrivalLane="51i_0" arrivalPos="10.00" arrivalPosLat="0.00" arrivalSpeed="5.41" duration="147.00" routeLength="236.77" waitingTime="74.00" waitingCount="5" stopTime="0.00" timeLoss="103.90" rerouteNo="0" devices="tripinfo_230" vType="type1" speedFactor="0.90" vaporized=""/>
    <tripinfo id="310" depart="315.00" departLane="54o_0" departPos="5.10" departPosLat="0.00" departSpeed="0.00" departDelay="0.00" arrival="410.00" arrivalLane="51i_2" arrivalPos="10.00" arrivalPosLat="0.00" arrivalSpeed="8.63" duration="95.00" routeLength="233.37" waitingTime="59.00" waitingCount="2" stopTime="0.00" timeLoss="73.10" rerouteNo="0" devices="tripinfo_310" vType="type3" speedFactor="0.75" vaporized=""/>
    <tripinfo id="300" depart="305.00" departLane="54o_0" departPos="2.30" departPosLat="0.00" departSpeed="0.00" departDelay="0.00" arrival="412.00" arrivalLane="51i_2" arrivalPos="10.00" arrivalPosLat="0.00" arrivalSpeed="11.47" duration="107.00" routeLength="236.17" waitingTime="65.00" waitingCount="6" stopTime="0.00" timeLoss="89.00" rerouteNo="0" devices="tripinfo_300" vType="type2" speedFactor="0.93" vaporized=""/>
    <tripinfo id="31" depart="204.00" departLane="51o_0" departPos="7.20" departPosLat="0.00" departSpeed="0.00" departDelay="169.00" arrival="415.00" arrivalLane="54i_0" arrivalPos="10.00" arrivalPosLat="0.00" arrivalSpeed="12.40" duration="211.00" routeLength="215.30" waitingTime="145.00" waitingCount="5" stopTime="0.00" timeLoss="196.87" rerouteNo="0" devices="tripinfo_31" vType="type5" speedFactor="1.08" vaporized=""/>
    <tripinfo id="250" depart="255.00" departLane="54o_0" departPos="5.10" departPosLat="0.00" departSpeed="0.00" departDelay="0.00" arrival="415.00" arrivalLane="51i_2" arrivalPos="10.00" arrivalPosLat="0.00" arrivalSpeed="13.34" duration="160.00" routeLength="233.37" waitingTime="103.00" waitingCount="6" stopTime="0.00" timeLoss="145.53" rerouteNo="0" devices="tripinfo_250" vType="type3" speedFactor="1.10" vaporized=""/>
    <tripinfo id="32" depart="210.00" departLane="51o_0" departPos="7.20" departPosLat="0.00" departSpeed="0.00" departDelay="175.00" arrival="417.00" arrivalLane="54i_0" arrivalPos="10.00" arrivalPosLat="0.00" arrivalSpeed="11.67" duration="207.00" routeLength="215.30" waitingTime="144.00" waitingCount="5" stopTime="0.00" timeLoss="192.05" rerouteNo="0" devices="tripinfo_32" vType="type5" speedFactor="1.00" vaporized=""/>
    <tripinfo id="350" depart="355.00" departLane="54o_0" departPos="1.70" departPosLat="0.00" departSpeed="0.00" departDelay="0.00" arrival="421.00" arrivalLane="51i_0" arrivalPos="10.00" arrivalPosLat="0.00" arrivalSpeed="5.09" duration="66.00" routeLength="236.77" waitingTime="14.00" waitingCount="2" stopTime="0.00" timeLoss="22.52" rerouteNo="0" devices="tripinfo_350" vType="type1" speedFactor="0.97" vaporized=""/>
    <tripinfo id="260" depart="265.00" departLane="54o_0" departPos="5.10" departPosLat="0.00" departSpeed="0.00" departDelay="0.00" arrival="446.00" arrivalLane="51i_2" arrivalPos="10.00" arrivalPosLat="0.00" arrivalSpeed="11.58" duration="181.00" routeLength="233.37" waitingTime="118.00" waitingCount="6" stopTime="0.00" timeLoss="164.59" rerouteNo="0" devices="tripinfo_260" vType="type4" speedFactor="1.00" vaporized=""/>
    <tripinfo id="270" depart="275.00" departLane="54o_0" departPos="7.20" departPosLat="0.00" departSpeed="0.00" departDelay="0.00" arrival="450.00" arrivalLane="51i_2" arrivalPos="10.00" arrivalPosLat="0.00" arrivalSpeed="12.26" duration="175.00" routeLength="231.27" waitingTime="109.00" waitingCount="5" stopTime="0.00" timeLoss="159.32" rerouteNo="0" devices="tripinfo_270" vType="type5" speedFactor="1.02" vaporized=""/>
    <tripinfo id="33" depart="267.00" departLane="51o_0" departPos="7.20" departPosLat="0.00" departSpeed="0.00" departDelay="232.00" arrival="455.00" arrivalLane="54i_0" arrivalPos="10.00" arrivalPosLat="0.00" arrivalSpeed="12.41" duration="188.00" routeLength="215.30" waitingTime="128.00" waitingCount="5" stopTime="0.00" timeLoss="173.97" rerouteNo="0" devices="tripinfo_33" vType="type5" speedFactor="1.09" vaporized=""/>
    <tripinfo id="34" depart="272.00" departLane="51o_0" departPos="7.20" departPosLat="0.00" departSpeed="0.00" departDelay="237.00" arrival="458.00" arrivalLane="54i_0" arrivalPos="10.00" arrivalPosLat="0.00" arrivalSpeed="11.97" duration="186.00" routeLength="215.30" waitingTime="122.00" waitingCount="5" stopTime="0.00" timeLoss="171.08" rerouteNo="0" devices="tripinfo_34" vType="type5" speedFactor="1.00" vaporized=""/>
    <tripinfo id="280" depart="285.00" departLane="54o_0" departPos="10.00" departPosLat="0.00" departSpeed="0.00" departDelay="0.00" arrival="480.00" arrivalLane="51i_2" arrivalPos="10.00" arrivalPosLat="0.00" arrivalSpeed="11.41" duration="195.00" routeLength="228.47" waitingTime="124.00" waitingCount="5" stopTime="0.00" timeLoss="179.45" rerouteNo="0" devices="tripinfo_280" vType="type6" speedFactor="1.00" vaporized=""/>
    <tripinfo id="360" depart="365.00" departLane="54o_0" departPos="2.30" departPosLat="0.00" departSpeed="0.00" departDelay="0.00" arrival="483.00" arrivalLane="51i_0" arrivalPos="10.00" arrivalPosLat="0.00" arrivalSpeed="15.96" duration="118.00" routeLength="236.17" waitingTime="76.00" waitingCount="3" stopTime="0.00" timeLoss="102.68" rerouteNo="0" devices="tripinfo_360" vType="type2" speedFactor="1.07" vaporized=""/>
    <tripinfo id="35" depart="296.00" departLane="51o_0" departPos="7.20" departPosLat="0.00" departSpeed="0.00" departDelay="256.00" arrival="487.00" arrivalLane="54i_0" arrivalPos="10.00" arrivalPosLat="0.00" arrivalSpeed="11.42" duration="191.00" routeLength="215.30" waitingTime="124.00" waitingCount="5" stopTime="0.00" timeLoss="176.42" rerouteNo="0" devices="tripinfo_35" vType="type5" speedFactor="1.01" vaporized=""/>
    <tripinfo id="36" depart="301.00" departLane="51o_0" departPos="7.20" departPosLat="0.00" departSpeed="0.00" departDelay="261.00" arrival="490.00" arrivalLane="54i_0" arrivalPos="10.00" arrivalPosLat="0.00" arrivalSpeed="11.53" duration="189.00" routeLength="215.30" waitingTime="126.00" waitingCount="5" stopTime="0.00" timeLoss="173.40" rerouteNo="0" devices="tripinfo_36" vType="type5" speedFactor="0.99" vaporized=""/>
    <tripinfo id="370" depart="375.00" departLane="54o_0" departPos="5.10" departPosLat="0.00" departSpeed="0.00" departDelay="0.00" arrival="511.00" arrivalLane="51i_2" arrivalPos="10.00" arrivalPosLat="0.00" arrivalSpeed="11.68" duration="136.00" routeLength="233.37" waitingTime="86.00" waitingCount="4" stopTime="0.00" timeLoss="118.20" rerouteNo="0" devices="tripinfo_370" vType="type3" speedFactor="0.90" vaporized=""/>
    <tripinfo id="320" depart="325.00" departLane="54o_0" departPos="5.10" departPosLat="0.00" departSpeed="0.00" departDelay="0.00" arrival="513.00" arrivalLane="51i_2" arrivalPos="10.00" arrivalPosLat="-0.70" arrivalSpeed="11.92" duration="188.00" routeLength="233.37" waitingTime="116.00" waitingCount="6" stopTime="0.00" timeLoss="171.40" rerouteNo="0" devices="tripinfo_320" vType="type4" speedFactor="0.97" vaporized=""/>