<?xml version="1.0" encoding="UTF-8"?>

<!-- generated on 2020年06月29日 星期一 11时29分59秒 by Eclipse SUMO GUI Version 1.6.0
<configuration xmlns:xsi="http://www.w3.org/2001/XMLSchema-instance" xsi:noNamespaceSchemaLocation="http://sumo.dlr.de/xsd/sumoConfiguration.xsd">

    <input>
        <net-file value="data/single_intersection.net.xml"/>
        <route-files value="data/test.rou.xml"/>
    </input>

    <output>
        <tripinfo-output value="tripinfo.xml"/>
    </output>

    <time>
        <begin value="0"/>
    </time>

    <processing>
        <lateral-resolution value="0.64"/>
        <waiting-time-memory value="60"/>
    </processing>

    <report>
        <verbose value="true"/>
        <no-step-log value="true"/>
    </report>

    <gui_only>
        <start value="true"/>
    </gui_only>

</configuration>
-->

<tripinfos xmlns:xsi="http://www.w3.org/2001/XMLSchema-instance" xsi:noNamespaceSchemaLocation="http://sumo.dlr.de/xsd/tripinfo_file.xsd">
    <tripinfo id="mixed4.1" depart="2.00" departLane="54o_1" departPos="2.20" departPosLat="-0.08" departSpeed="0.00" departDelay="0.50" arrival="28.00" arrivalLane="53i_0" arrivalPos="10.00" arrivalPosLat="1.32" arrivalSpeed="13.87" duration="26.00" routeLength="238.00" waitingTime="0.00" waitingCount="0" stopTime="0.00" timeLoss="9.97" rerouteNo="0" devices="tripinfo_mixed4.1" vType="moped" speedFactor="1.18" vaporized=""/>
    <tripinfo id="mixed4.0" depart="0.00" departLane="54o_2" departPos="5.10" departPosLat="0.34" departSpeed="0.00" departDelay="0.00" arrival="29.00" arrivalLane="53i_0" arrivalPos="10.00" arrivalPosLat="-0.70" arrivalSpeed="14.18" duration="29.00" routeLength="235.10" waitingTime="4.00" waitingCount="1" stopTime="0.00" timeLoss="14.80" rerouteNo="0" devices="tripinfo_mixed4.0" vType="car" speedFactor="1.17" vaporized=""/>
    <tripinfo id="mixed4.4" depart="7.00" departLane="54o_0" departPos="5.10" departPosLat="-0.37" departSpeed="0.00" departDelay="1.00" arrival="31.00" arrivalLane="53i_0" arrivalPos="10.00" arrivalPosLat="-0.70" arrivalSpeed="14.56" duration="24.00" routeLength="235.10" waitingTime="0.00" waitingCount="0" stopTime="0.00" timeLoss="10.47" rerouteNo="0" devices="tripinfo_mixed4.4" vType="car" speedFactor="1.25" vaporized=""/>
    <tripinfo id="mixed4.5" depart="11.00" departLane="54o_2" departPos="5.10" departPosLat="-0.27" departSpeed="0.00" departDelay="3.50" arrival="32.00" arrivalLane="53i_1" arrivalPos="10.00" arrivalPosLat="-1.34" arrivalSpeed="11.95" duration="21.00" routeLength="235.10" waitingTime="0.00" waitingCount="0" stopTime="0.00" timeLoss="5.73" rerouteNo="0" devices="tripinfo_mixed4.5" vType="car" speedFactor="1.08" vaporized=""/>
    <tripinfo id="mixed4.2" depart="3.00" departLane="54o_1" departPos="2.20" departPosLat="0.90" departSpeed="0.00" departDelay="0.00" arrival="35.00" arrivalLane="53i_0" arrivalPos="10.00" arrivalPosLat="-0.56" arrivalSpeed="9.06" duration="32.00" routeLength="238.00" waitingTime="0.00" waitingCount="0" stopTime="0.00" timeLoss="9.72" rerouteNo="0" devices="tripinfo_mixed4.2" vType="moped" speedFactor="0.75" vaporized=""/>
    <tripinfo id="mixed1.2" depart="3.00" departLane="51o_1" departPos="5.10" departPosLat="0.09" departSpeed="0.00" departDelay="0.50" arrival="37.00" arrivalLane="52i_0" arrivalPos="10.00" arrivalPosLat="-0.06" arrivalSpeed="13.60" duration="34.00" routeLength="235.10" waitingTime="7.00" waitingCount="1" stopTime="0.00" timeLoss="19.75" rerouteNo="0" devices="tripinfo_mixed1.2" vType="car" speedFactor="1.16" vaporized=""/>
    <tripinfo id="mixed4.3" depart="5.00" departLane="54o_2" departPos="2.20" departPosLat="1.05" departSpeed="0.00" departDelay="0.50" arrival="37.00" arrivalLane="53i_0" arrivalPos="10.00" arrivalPosLat="-1.20" arrivalSpeed="8.59" duration="32.00" routeLength="238.00" waitingTime="0.00" waitingCount="0" stopTime="0.00" timeLoss="8.20" rerouteNo="0" devices="tripinfo_mixed4.3" vType="moped" speedFactor="0.69" vaporized=""/>
    <tripinfo id="mixed1.0" depart="0.00" departLane="51o_2" departPos="5.10" departPosLat="0.30" departSpeed="0.00" departDelay="0.00" arrival="39.00" arrivalLane="52i_0" arrivalPos="10.00" arrivalPosLat="-0.70" arrivalSpeed="10.97" duration="39.00" routeLength="235.10" waitingTime="10.00" waitingCount="1" stopTime="0.00" timeLoss="21.38" rerouteNo="0" devices="tripinfo_mixed1.0" vType="car" speedFactor="0.95" vaporized=""/>
    <tripinfo id="mixed1.11" depart="18.00" departLane="51o_2" departPos="5.10" departPosLat="0.30" departSpeed="0.00" departDelay="4.25" arrival="40.00" arrivalLane="52i_2" arrivalPos="10.00" arrivalPosLat="-0.70" arrivalSpeed="12.55" duration="22.00" routeLength="235.10" waitingTime="0.00" waitingCount="0" stopTime="0.00" timeLoss="6.41" rerouteNo="0" devices="tripinfo_mixed1.11" vType="car" speedFactor="1.06" vaporized=""/>
    <tripinfo id="mixed1.6" depart="8.00" departLane="51o_2" departPos="2.20" departPosLat="-0.82" departSpeed="0.00" departDelay="0.50" arrival="41.00" arrivalLane="52i_0" arrivalPos="10.00" arrivalPosLat="-1.20" arrivalSpeed="8.41" duration="33.00" routeLength="238.00" waitingTime="0.00" waitingCount="0" stopTime="0.00" timeLoss="8.77" rerouteNo="0" devices="tripinfo_mixed1.6" vType="moped" speedFactor="0.71" vaporized=""/>
    <tripinfo id="mixed1.3" depart="4.00" departLane="51o_2" departPos="2.20" departPosLat="0.44" departSpeed="0.00" departDelay="0.25" arrival="42.00" arrivalLane="52i_0" arrivalPos="10.00" arrivalPosLat="0.08" arrivalSpeed="11.23" duration="38.00" routeLength="238.00" waitingTime="3.00" waitingCount="1" stopTime="0.00" timeLoss="20.67" rerouteNo="0" devices="tripinfo_mixed1.3" vType="moped" speedFactor="1.07" vaporized=""/>
    <tripinfo id="mixed1.1" depart="2.00" departLane="51o_2" departPos="2.20" departPosLat="0.11" departSpeed="0.00" departDelay="0.75" arrival="43.00" arrivalLane="52i_1" arrivalPos="10.00" arrivalPosLat="0.72" arrivalSpeed="15.21" duration="41.00" routeLength="238.00" waitingTime="1.00" waitingCount="1" stopTime="0.00" timeLoss="25.86" rerouteNo="0" devices="tripinfo_mixed1.1" vType="moped" speedFactor="1.80" vaporized=""/>
    <tripinfo id="mixed1.4" depart="5.00" departLane="51o_0" departPos="2.20" departPosLat="-0.46" departSpeed="0.00" departDelay="0.00" arrival="43.00" arrivalLane="52i_0" arrivalPos="10.00" arrivalPosLat="1.32" arrivalSpeed="13.95" duration="38.00" routeLength="238.00" waitingTime="3.00" waitingCount="1" stopTime="0.00" timeLoss="22.96" rerouteNo="0" devices="tripinfo_mixed1.4" vType="moped" speedFactor="1.36" vaporized=""/>
    <tripinfo id="mixed1.5" depart="7.00" departLane="51o_1" departPos="5.10" departPosLat="-0.28" departSpeed="0.00" departDelay="0.75" arrival="43.00" arrivalLane="52i_0" arrivalPos="10.00" arrivalPosLat="-0.70" arrivalSpeed="10.27" duration="36.00" routeLength="235.10" waitingTime="2.00" waitingCount="1" stopTime="0.00" timeLoss="15.96" rerouteNo="0" devices="tripinfo_mixed1.5" vType="car" speedFactor="0.80" vaporized=""/>
    <tripinfo id="mixed1.8" depart="11.00" departLane="51o_1" departPos="2.20" departPosLat="0.19" departSpeed="0.00" departDelay="1.00" arrival="45.00" arrivalLane="52i_0" arrivalPos="10.00" arrivalPosLat="-1.20" arrivalSpeed="10.72" duration="34.00" routeLength="238.00" waitingTime="1.00" waitingCount="1" stopTime="0.00" timeLoss="16.82" rerouteNo="0" devices="tripinfo_mixed1.8" vType="moped" speedFactor="1.04" vaporized=""/>
    <tripinfo id="mixed1.13" depart="17.00" departLane="51o_1" departPos="2.20" departPosLat="0.30" departSpeed="0.00" departDelay="0.75" arrival="45.00" arrivalLane="52i_2" arrivalPos="10.00" arrivalPosLat="1.20" arrivalSpeed="15.11" duration="28.00" routeLength="238.00" waitingTime="0.00" waitingCount="0" stopTime="0.00" timeLoss="13.51" rerouteNo="0" devices="tripinfo_mixed1.13" vType="moped" speedFactor="1.49" vaporized=""/>
    <tripinfo id="mixed1.14" depart="22.00" departLane="51o_1" departPos="5.10" departPosLat="0.13" departSpeed="0.00" departDelay="4.50" arrival="47.00" arrivalLane="52i_0" arrivalPos="10.00" arrivalPosLat="-0.70" arrivalSpeed="11.50" duration="25.00" routeLength="235.10" waitingTime="0.00" waitingCount="0" stopTime="0.00" timeLoss="7.57" rerouteNo="0" devices="tripinfo_mixed1.14" vType="car" speedFactor="0.94" vaporized=""/>
    <tripinfo id="mixed1.7" depart="10.00" departLane="51o_2" departPos="2.20" departPosLat="0.52" departSpeed="0.00" departDelay="1.25" arrival="48.00" arrivalLane="52i_1" arrivalPos="10.00" arrivalPosLat="-0.56" arrivalSpeed="9.03" duration="38.00" routeLength="238.00" waitingTime="0.00" waitingCount="0" stopTime="0.00" timeLoss="15.93" rerouteNo="0" devices="tripinfo_mixed1.7" vType="moped" speedFactor="0.74" vaporized=""/>
    <tripinfo id="mixed1.10" depart="14.00" departLane="51o_2" departPos="5.10" departPosLat="-0.63" departSpeed="0.00" departDelay="1.50" arrival="48.00" arrivalLane="52i_1" arrivalPos="10.00" arrivalPosLat="1.22" arrivalSpeed="9.08" duration="34.00" routeLength="235.10" waitingTime="0.00" waitingCount="0" stopTime="0.00" timeLoss="11.96" rerouteNo="0" devices="tripinfo_mixed1.10" vType="car" speedFactor="0.75" vaporized=""/>
    <tripinfo id="mixed1.16" depart="21.00" departLane="51o_1" departPos="2.20" departPosLat="-0.83" departSpeed="0.00" departDelay="1.00" arrival="48.00" arrivalLane="52i_0" arrivalPos="10.00" arrivalPosLat="1.24" arrivalSpeed="13.52" duration="27.00" routeLength="238.00" waitingTime="0.00" waitingCount="0" stopTime="0.00" timeLoss="12.10" rerouteNo="0" devices="tripinfo_mixed1.16" vType="moped" speedFactor="1.41" vaporized=""/>
    <tripinfo id="mixed1.18" depart="23.00" departLane="51o_2" departPos="5.10" departPosLat="0.62" departSpeed="0.00" departDelay="0.50" arrival="49.00" arrivalLane="52i_2" arrivalPos="10.00" arrivalPosLat="-0.06" arrivalSpeed="11.74" duration="26.00" routeLength="235.10" waitingTime="0.00" waitingCount="0" stopTime="0.00" timeLoss="10.71" rerouteNo="0" devices="tripinfo_mixed1.18" vType="car" speedFactor="1.08" vaporized=""/>
    <tripinfo id="mixed1.17" depart="22.00" departLane="51o_0" departPos="2.20" departPosLat="0.34" departSpeed="0.00" departDelay="0.75" arrival="50.00" arrivalLane="52i_0" arrivalPos="10.00" arrivalPosLat="0.72" arrivalSpeed="14.03" duration="28.00" routeLength="238.00" waitingTime="0.00" waitingCount="0" stopTime="0.00" timeLoss="11.71" rerouteNo="0" devices="tripinfo_mixed1.17" vType="moped" speedFactor="1.26" vaporized=""/>
    <tripinfo id="mixed1.20" depart="25.00" departLane="51o_2" departPos="2.20" departPosLat="0.98" departSpeed="0.00" departDelay="0.00" arrival="50.00" arrivalLane="52i_1" arrivalPos="10.00" arrivalPosLat="0.72" arrivalSpeed="12.28" duration="25.00" routeLength="238.00" waitingTime="0.00" waitingCount="0" stopTime="0.00" timeLoss="10.37" rerouteNo="0" devices="tripinfo_mixed1.20" vType="moped" speedFactor="1.68" vaporized=""/>
    <tripinfo id="mixed1.9" depart="12.00" departLane="51o_1" departPos="2.20" departPosLat="1.03" departSpeed="0.00" departDelay="0.75" arrival="52.00" arrivalLane="52i_0" arrivalPos="10.00" arrivalPosLat="-1.20" arrivalSpeed="7.85" duration="40.00" routeLength="238.00" waitingTime="0.00" waitingCount="0" stopTime="0.00" timeLoss="9.81" rerouteNo="0" devices="tripinfo_mixed1.9" vType="moped" speedFactor="0.56" vaporized=""/>
    <tripinfo id="mixed1.12" depart="16.00" departLane="51o_0" departPos="5.10" departPosLat="0.67" departSpeed="0.00" departDelay="1.00" arrival="52.00" arrivalLane="52i_0" arrivalPos="10.00" arrivalPosLat="0.58" arrivalSpeed="10.28" duration="36.00" routeLength="235.10" waitingTime="0.00" waitingCount="0" stopTime="0.00" timeLoss="15.44" rerouteNo="0" devices="tripinfo_mixed1.12" vType="car" speedFactor="0.79" vaporized=""/>
    <tripinfo id="mixed1.15" depart="20.00" departLane="51o_2" departPos="2.20" departPosLat="0.51" departSpeed="0.00" departDelay="1.25" arrival="53.00" arrivalLane="52i_1" arrivalPos="10.00" arrivalPosLat="-1.20" arrivalSpeed="8.57" duration="33.00" routeLength="238.00" waitingTime="0.00" waitingCount="0" stopTime="0.00" timeLoss="10.66" rerouteNo="0" devices="tripinfo_mixed1.15" vType="moped" speedFactor="0.76" vaporized=""/>
    <tripinfo id="mixed1.24" depart="33.00" departLane="51o_2" departPos="5.10" departPosLat="0.35" departSpeed="0.00" departDelay="3.00" arrival="56.00" arrivalLane="52i_1" arrivalPos="10.00" arrivalPosLat="-0.70" arrivalSpeed="11.42" duration="23.00" routeLength="235.10" waitingTime="0.00" waitingCount="0" stopTime="0.00" timeLoss="6.51" rerouteNo="0" devices="tripinfo_mixed1.24" vType="car" speedFactor="0.99" vaporized=""/>
    <tripinfo id="mixed1.28" depart="35.00" departLane="51o_1" departPos="5.10" departPosLat="-0.55" departSpeed="0.00" departDelay="0.00" arrival="58.00" arrivalLane="52i_0" arrivalPos="10.00" arrivalPosLat="0.58" arrivalSpeed="13.09" duration="23.00" routeLength="235.10" waitingTime="0.00" waitingCount="0" stopTime="0.00" timeLoss="7.18" rerouteNo="0" devices="tripinfo_mixed1.28" vType="car" speedFactor="1.04" vaporized=""/>
    <tripinfo id="mixed1.23" depart="29.00" departLane="51o_2" departPos="2.20" departPosLat="0.19" departSpeed="0.00" departDelay="0.25" arrival="60.00" arrivalLane="52i_0" arrivalPos="10.00" arrivalPosLat="-1.20" arrivalSpeed="10.30" duration="31.00" routeLength="238.00" waitingTime="0.00" waitingCount="0" stopTime="0.00" timeLoss="10.67" rerouteNo="0" devices="tripinfo_mixed1.23" vType="moped" speedFactor="0.85" vaporized=""/>
    <tripinfo id="mixed1.30" depart="39.00" departLane="51o_2" departPos="5.10" departPosLat="0.37" departSpeed="0.00" departDelay="1.50" arrival="61.00" arrivalLane="52i_1" arrivalPos="10.00" arrivalPosLat="-0.70" arrivalSpeed="12.77" duration="22.00" routeLength="235.10" waitingTime="0.00" waitingCount="0" stopTime="0.00" timeLoss="6.39" rerouteNo="0" devices="tripinfo_mixed1.30" vType="car" speedFactor="1.06" vaporized=""/>
    <tripinfo id="mixed1.22" depart="28.00" departLane="51o_1" departPos="2.20" departPosLat="0.72" departSpeed="0.00" departDelay="0.50" arrival="64.00" arrivalLane="52i_0" arrivalPos="10.00" arrivalPosLat="0.68" arrivalSpeed="7.22" duration="36.00" routeLength="238.00" waitingTime="0.00" waitingCount="0" stopTime="0.00" timeLoss="8.27" rerouteNo="0" devices="tripinfo_mixed1.22" vType="moped" speedFactor="0.60" vaporized=""/>
    <tripinfo id="mixed1.32" depart="41.00" departLane="51o_1" departPos="5.10" departPosLat="0.01" departSpeed="0.00" departDelay="1.00" arrival="64.00" arrivalLane="52i_1" arrivalPos="10.00" arrivalPosLat="0.58" arrivalSpeed="12.09" duration="23.00" routeLength="235.10" waitingTime="0.00" waitingCount="0" stopTime="0.00" timeLoss="7.15" rerouteNo="0" devices="tripinfo_mixed1.32" vType="car" speedFactor="1.03" vaporized=""/>
    <tripinfo id="mixed1.19" depart="24.00" departLane="51o_0" departPos="2.20" departPosLat="0.97" departSpeed="0.00" departDelay="0.25" arrival="65.00" arrivalLane="52i_0" arrivalPos="10.00" arrivalPosLat="-1.20" arrivalSpeed="6.57" duration="41.00" routeLength="238.00" waitingTime="0.00" waitingCount="0" stopTime="0.00" timeLoss="7.87" rerouteNo="0" devices="tripinfo_mixed1.19" vType="moped" speedFactor="0.51" vaporized=""/>
    <tripinfo id="mixed1.34" depart="43.00" departLane="51o_2" departPos="5.10" departPosLat="0.69" departSpeed="0.00" departDelay="0.50" arrival="65.00" arrivalLane="52i_2" arrivalPos="10.00" arrivalPosLat="-1.10" arrivalSpeed="12.88" duration="22.00" routeLength="235.10" waitingTime="0.00" waitingCount="0" stopTime="0.00" timeLoss="5.48" rerouteNo="0" devices="tripinfo_mixed1.34" vType="car" speedFactor="1.01" vaporized=""/>
    <tripinfo id="mixed1.29" depart="37.00" departLane="51o_0" departPos="5.10" departPosLat="-0.38" departSpeed="0.00" departDelay="0.75" arrival="66.00" arrivalLane="52i_0" arrivalPos="10.00" arrivalPosLat="1.18" arrivalSpeed="9.63" duration="29.00" routeLength="235.10" waitingTime="0.00" waitingCount="0" stopTime="0.00" timeLoss="15.71" rerouteNo="0" devices="tripinfo_mixed1.29" vType="car" speedFactor="1.24" vaporized=""/>
    <tripinfo id="mixed1.21" depart="28.00" departLane="51o_1" departPos="2.20" departPosLat="-0.83" departSpeed="0.00" departDelay="1.75" arrival="67.00" arrivalLane="52i_0" arrivalPos="10.00" arrivalPosLat="-1.20" arrivalSpeed="7.04" duration="39.00" routeLength="238.00" waitingTime="0.00" waitingCount="0" stopTime="0.00" timeLoss="21.36" rerouteNo="0" devices="tripinfo_mixed1.21" vType="moped" speedFactor="1.01" vaporized=""/>
    <tripinfo id="mixed1.27" depart="37.00" departLane="51o_2" departPos="2.20" departPosLat="-0.67" departSpeed="0.00" departDelay="3.25" arrival="68.00" arrivalLane="52i_1" arrivalPos="10.00" arrivalPosLat="-0.60" arrivalSpeed="9.49" duration="31.00" routeLength="238.00" waitingTime="0.00" waitingCount="0" stopTime="0.00" timeLoss="10.13" rerouteNo="0" devices="tripinfo_mixed1.27" vType="moped" speedFactor="0.79" vaporized=""/>
    <tripinfo id="mixed1.31" depart="41.00" departLane="51o_0" departPos="5.10" departPosLat="0.06" departSpeed="0.00" departDelay="2.25" arrival="68.00" arrivalLane="52i_0" arrivalPos="10.00" arrivalPosLat="0.64" arrivalSpeed="11.84" duration="27.00" routeLength="235.10" waitingTime="0.00" waitingCount="0" stopTime="0.00" timeLoss="12.68" rerouteNo="0" devices="tripinfo_mixed1.31" vType="car" speedFactor="1.17" vaporized=""/>
    <tripinfo id="mixed1.38" depart="48.00" departLane="51o_2" departPos="5.10" departPosLat="0.64" departSpeed="0.00" departDelay="0.50" arrival="68.00" arrivalLane="52i_1" arrivalPos="10.00" arrivalPosLat="1.22" arrivalSpeed="15.69" duration="20.00" routeLength="235.10" waitingTime="0.00" waitingCount="0" stopTime="0.00" timeLoss="7.19" rerouteNo="0" devices="tripinfo_mixed1.38" vType="car" speedFactor="1.28" vaporized=""/>
    <tripinfo id="mixed1.25" depart="32.00" departLane="51o_0" departPos="2.20" departPosLat="-0.23" departSpeed="0.00" departDelay="0.75" arrival="69.00" arrivalLane="52i_0" arrivalPos="10.00" arrivalPosLat="-0.20" arrivalSpeed="7.64" duration="37.00" routeLength="238.00" waitingTime="0.00" waitingCount="0" stopTime="0.00" timeLoss="19.09" rerouteNo="0" devices="tripinfo_mixed1.25" vType="moped" speedFactor="0.99" vaporized=""/>
    <tripinfo id="mixed1.26" depart="33.00" departLane="51o_1" departPos="2.20" departPosLat="-0.91" departSpeed="0.00" departDelay="0.50" arrival="70.00" arrivalLane="52i_0" arrivalPos="10.00" arrivalPosLat="0.64" arrivalSpeed="7.42" duration="37.00" routeLength="238.00" waitingTime="0.00" waitingCount="0" stopTime="0.00" timeLoss="17.36" rerouteNo="0" devices="tripinfo_mixed1.26" vType="moped" speedFactor="0.84" vaporized=""/>
    <tripinfo id="mixed1.36" depart="46.00" departLane="51o_2" departPos="2.20" departPosLat="-0.25" departSpeed="0.00" departDelay="1.00" arrival="73.00" arrivalLane="52i_1" arrivalPos="10.00" arrivalPosLat="-1.20" arrivalSpeed="13.78" duration="27.00" routeLength="238.00" waitingTime="0.00" waitingCount="0" stopTime="0.00" timeLoss="10.87" rerouteNo="0" devices="tripinfo_mixed1.36" vType="moped" speedFactor="1.21" vaporized=""/>
    <tripinfo id="mixed1.33" depart="44.00" departLane="51o_1" departPos="2.20" departPosLat="-1.08" departSpeed="0.00" departDelay="2.75" arrival="74.00" arrivalLane="52i_0" arrivalPos="10.00" arrivalPosLat="0.96" arrivalSpeed="10.87" duration="30.00" routeLength="238.00" waitingTime="0.00" waitingCount="0" stopTime="0.00" timeLoss="11.30" rerouteNo="0" devices="tripinfo_mixed1.33" vType="moped" speedFactor="0.90" vaporized=""/>
    <tripinfo id="mixed1.37" depart="48.00" departLane="51o_1" departPos="5.10" departPosLat="-0.28" departSpeed="0.00" departDelay="1.75" arrival="75.00" arrivalLane="52i_0" arrivalPos="10.00" arrivalPosLat="-0.70" arrivalSpeed="9.76" duration="27.00" routeLength="235.10" waitingTime="0.00" waitingCount="0" stopTime="0.00" timeLoss="4.34" rerouteNo="0" devices="tripinfo_mixed1.37" vType="car" speedFactor="0.72" vaporized=""/>
    <tripinfo id="mixed1.39" depart="50.00" departLane="51o_1" departPos="2.20" departPosLat="-0.17" departSpeed="0.00" departDelay="1.25" arrival="76.00" arrivalLane="52i_0" arrivalPos="10.00" arrivalPosLat="1.32" arrivalSpeed="11.94" duration="26.00" routeLength="238.00" waitingTime="0.00" waitingCount="0" stopTime="0.00" timeLoss="11.22" rerouteNo="0" devices="tripinfo_mixed1.39" vType="moped" speedFactor="1.58" vaporized=""/>
    <tripinfo id="mixed1.35" depart="44.00" departLane="51o_0" departPos="2.20" departPosLat="0.57" departSpeed="0.00" departDelay="0.25" arrival="77.00" arrivalLane="52i_0" arrivalPos="10.00" arrivalPosLat="-1.20" arrivalSpeed="9.03" duration="33.00" routeLength="238.00" waitingTime="0.00" waitingCount="0" stopTime="0.00" timeLoss="11.39" rerouteNo="0" devices="tripinfo_mixed1.35" vType="moped" speedFactor="0.77" vaporized=""/>
    <tripinfo id="mixed1.40" depart="50.00" departLane="51o_0" departPos="2.20" departPosLat="0.94" departSpeed="0.00" departDelay="0.00" arrival="79.00" arrivalLane="52i_0" arrivalPos="10.00" arrivalPosLat="-1.20" arrivalSpeed="10.21" duration="29.00" routeLength="238.00" waitingTime="0.00" waitingCount="0" stopTime="0.00" timeLoss="9.74" rerouteNo="0" devices="tripinfo_mixed1.40" vType="moped" speedFactor="0.87" vaporized=""/>
    <tripinfo id="mixed1.41" depart="53.00" departLane="51o_2" departPos="2.20" departPosLat="-0.60" departSpeed="0.00" departDelay="1.75" arrival="79.00" arrivalLane="52i_0" arrivalPos="10.00" arrivalPosLat="1.32" arrivalSpeed="14.10" duration="26.00" routeLength="238.00" waitingTime="0.00" waitingCount="0" stopTime="0.00" timeLoss="10.56" rerouteNo="0" devices="tripinfo_mixed1.41" vType="moped" speedFactor="1.30" vaporized=""/>
    <tripinfo id="mixed1.42" depart="55.00" departLane="51o_0" departPos="5.10" departPosLat="-0.49" departSpeed="0.00" departDelay="2.50" arrival="81.00" arrivalLane="52i_0" arrivalPos="10.00" arrivalPosLat="-0.70" arrivalSpeed="12.70" duration="26.00" routeLength="235.10" waitingTime="0.00" waitingCount="0" stopTime="0.00" timeLoss="10.23" rerouteNo="0" devices="tripinfo_mixed1.42" vType="car" speedFactor="1.07" vaporized=""/>
    <tripinfo id="mixed1.45" depart="58.00" departLane="51o_0" departPos="5.10" departPosLat="0.14" departSpeed="0.00" departDelay="1.75" arrival="83.00" arrivalLane="52i_0" arrivalPos="10.00" arrivalPosLat="-0.70" arrivalSpeed="14.72" duration="25.00" routeLength="235.10" waitingTime="0.00" waitingCount="0" stopTime="0.00" timeLoss="10.67" rerouteNo="0" devices="tripinfo_mixed1.45" vType="car" speedFactor="1.19" vaporized=""/>
    <tripinfo id="mixed1.47" depart="59.00" departLane="51o_1" departPos="2.20" departPosLat="-0.91" departSpeed="0.00" departDelay="0.25" arrival="83.00" arrivalLane="52i_0" arrivalPos="10.00" arrivalPosLat="0.72" arrivalSpeed="16.28" duration="24.00" routeLength="238.00" waitingTime="0.00" waitingCount="0" stopTime="0.00" timeLoss="9.29" rerouteNo="0" devices="tripinfo_mixed1.47" vType="moped" speedFactor="1.52" vaporized=""/>
    <tripinfo id="mixed1.43" depart="58.00" departLane="51o_2" departPos="2.20" departPosLat="1.04" departSpeed="0.00" departDelay="4.25" arrival="85.00" arrivalLane="52i_0" arrivalPos="10.00" arrivalPosLat="-1.20" arrivalSpeed="14.56" duration="27.00" routeLength="238.00" waitingTime="0.00" waitingCount="0" stopTime="0.00" timeLoss="10.78" rerouteNo="0" devices="tripinfo_mixed1.43" vType="moped" speedFactor="1.26" vaporized=""/>
    <tripinfo id="mixed1.46" depart="59.00" departLane="51o_0" departPos="2.20" departPosLat="0.83" departSpeed="0.00" departDelay="1.50" arrival="86.00" arrivalLane="52i_0" arrivalPos="10.00" arrivalPosLat="0.08" arrivalSpeed="16.36" duration="27.00" routeLength="238.00" waitingTime="0.00" waitingCount="0" stopTime="0.00" timeLoss="12.43" rerouteNo="0" devices="tripinfo_mixed1.46" vType="moped" speedFactor="1.71" vaporized=""/>
    <tripinfo id="mixed1.49" depart="62.00" departLane="51o_1" departPos="2.20" departPosLat="-0.84" departSpeed="0.00" departDelay="0.75" arrival="90.00" arrivalLane="52i_0" arrivalPos="10.00" arrivalPosLat="-1.20" arrivalSpeed="12.67" duration="28.00" routeLength="238.00" waitingTime="0.00" waitingCount="0" stopTime="0.00" timeLoss="11.10" rerouteNo="0" devices="tripinfo_mixed1.49" vType="moped" speedFactor="1.13" vaporized=""/>
    <tripinfo id="mixed1.51" depart="67.00" departLane="51o_1" departPos="5.10" departPosLat="0.59" departSpeed="0.00" departDelay="3.25" arrival="91.00" arrivalLane="52i_1" arrivalPos="10.00" arrivalPosLat="1.22" arrivalSpeed="11.52" duration="24.00" routeLength="235.10" waitingTime="0.00" waitingCount="0" stopTime="0.00" timeLoss="7.28" rerouteNo="0" devices="tripinfo_mixed1.51" vType="car" speedFactor="1.01" vaporized=""/>
    <tripinfo id="mixed1.48" depart="62.00" departLane="51o_0" departPos="2.20" departPosLat="0.05" departSpeed="0.00" departDelay="2.00" arrival="94.00" arrivalLane="52i_0" arrivalPos="10.00" arrivalPosLat="0.08" arrivalSpeed="10.68" duration="32.00" routeLength="238.00" waitingTime="0.00" waitingCount="0" stopTime="0.00" timeLoss="12.86" rerouteNo="0" devices="tripinfo_mixed1.48" vType="moped" speedFactor="0.91" vaporized=""/>
    <tripinfo id="mixed1.55" depart="71.00" departLane="51o_2" departPos="5.10" departPosLat="-0.67" departSpeed="0.00" departDelay="2.25" arrival="94.00" arrivalLane="52i_1" arrivalPos="10.00" arrivalPosLat="1.22" arrivalSpeed="13.68" duration="23.00" routeLength="235.10" waitingTime="0.00" waitingCount="0" stopTime="0.00" timeLoss="6.22" rerouteNo="0" devices="tripinfo_mixed1.55" vType="car" speedFactor="1.02" vaporized=""/>
    <tripinfo id="mixed1.44" depart="56.00" departLane="51o_2" departPos="2.20" departPosLat="1.14" departSpeed="0.00" departDelay="1.00" arrival="99.00" arrivalLane="52i_0" arrivalPos="10.00" arrivalPosLat="-1.20" arrivalSpeed="6.50" duration="43.00" routeLength="238.00" waitingTime="0.00" waitingCount="0" stopTime="0.00" timeLoss="7.04" rerouteNo="0" devices="tripinfo_mixed1.44" vType="moped" speedFactor="0.46" vaporized=""/>
    <tripinfo id="mixed1.59" depart="74.00" departLane="51o_2" departPos="2.20" departPosLat="1.00" departSpeed="0.00" departDelay="0.25" arrival="99.00" arrivalLane="52i_1" arrivalPos="10.00" arrivalPosLat="1.32" arrivalSpeed="16.40" duration="25.00" routeLength="238.00" waitingTime="0.00" waitingCount="0" stopTime="0.00" timeLoss="9.99" rerouteNo="0" devices="tripinfo_mixed1.59" vType="moped" speedFactor="1.85" vaporized=""/>
    <tripinfo id="mixed1.57" depart="72.00" departLane="51o_0" departPos="5.10" departPosLat="-0.51" departSpeed="0.00" departDelay="0.75" arrival="100.00" arrivalLane="52i_1" arrivalPos="10.00" arrivalPosLat="0.54" arrivalSpeed="12.56" duration="28.00" routeLength="235.10" waitingTime="0.00" waitingCount="0" stopTime="0.00" timeLoss="14.54" rerouteNo="0" devices="tripinfo_mixed1.57" vType="car" speedFactor="1.23" vaporized=""/>
    <tripinfo id="mixed1.50" depart="63.00" departLane="51o_2" departPos="2.20" departPosLat="-0.91" departSpeed="0.00" departDelay="0.50" arrival="101.00" arrivalLane="52i_0" arrivalPos="10.00" arrivalPosLat="1.32" arrivalSpeed="6.98" duration="38.00" routeLength="238.00" waitingTime="0.00" waitingCount="0" stopTime="0.00" timeLoss="7.26" rerouteNo="0" devices="tripinfo_mixed1.50" vType="moped" speedFactor="0.54" vaporized=""/>
    <tripinfo id="mixed1.52" depart="67.00" departLane="51o_0" departPos="5.10" departPosLat="0.65" departSpeed="0.00" departDelay="2.00" arrival="101.00" arrivalLane="52i_0" arrivalPos="10.00" arrivalPosLat="-0.70" arrivalSpeed="7.73" duration="34.00" routeLength="235.10" waitingTime="0.00" waitingCount="0" stopTime="0.00" timeLoss="20.55" rerouteNo="0" devices="tripinfo_mixed1.52" vType="car" speedFactor="1.24" vaporized=""/>
    <tripinfo id="mixed1.54" depart="71.00" departLane="51o_1" departPos="5.10" departPosLat="0.01" departSpeed="0.00" departDelay="3.50" arrival="103.00" arrivalLane="52i_0" arrivalPos="10.00" arrivalPosLat="-0.70" arrivalSpeed="9.53" duration="32.00" routeLength="235.10" waitingTime="0.00" waitingCount="0" stopTime="0.00" timeLoss="16.37" rerouteNo="0" devices="tripinfo_mixed1.54" vType="car" speedFactor="1.07" vaporized=""/>
    <tripinfo id="mixed1.56" depart="76.00" departLane="51o_1" departPos="5.10" departPosLat="-0.48" departSpeed="0.00" departDelay="6.00" arrival="103.00" arrivalLane="52i_1" arrivalPos="10.00" arrivalPosLat="-1.60" arrivalSpeed="12.80" duration="27.00" routeLength="235.10" waitingTime="0.00" waitingCount="0" stopTime="0.00" timeLoss="10.75" rerouteNo="0" devices="tripinfo_mixed1.56" vType="car" speedFactor="1.01" vaporized=""/>
    <tripinfo id="mixed1.66" depart="83.00" departLane="51o_2" departPos="5.10" departPosLat="-0.05" departSpeed="0.00" departDelay="0.50" arrival="103.00" arrivalLane="52i_1" arrivalPos="10.00" arrivalPosLat="0.94" arrivalSpeed="14.43" duration="20.00" routeLength="235.10" waitingTime="0.00" waitingCount="0" stopTime="0.00" timeLoss="6.98" rerouteNo="0" devices="tripinfo_mixed1.66" vType="car" speedFactor="1.25" vaporized=""/>
    <tripinfo id="mixed1.58" depart="75.00" departLane="51o_0" departPos="2.20" departPosLat="1.15" departSpeed="0.00" departDelay="2.50" arrival="106.00" arrivalLane="52i_0" arrivalPos="10.00" arrivalPosLat="0.72" arrivalSpeed="10.69" duration="31.00" routeLength="238.00" waitingTime="0.00" waitingCount="0" stopTime="0.00" timeLoss="16.25" rerouteNo="0" devices="tripinfo_mixed1.58" vType="moped" speedFactor="1.52" vaporized=""/>
    <tripinfo id="mixed1.62" depart="78.00" departLane="51o_2" departPos="5.10" departPosLat="0.29" departSpeed="0.00" departDelay="0.50" arrival="107.00" arrivalLane="52i_1" arrivalPos="10.00" arrivalPosLat="-1.10" arrivalSpeed="11.70" duration="29.00" routeLength="235.10" waitingTime="0.00" waitingCount="0" stopTime="0.00" timeLoss="8.65" rerouteNo="0" devices="tripinfo_mixed1.62" vType="car" speedFactor="0.84" vaporized=""/>