<?xml version="1.0" encoding="UTF-8"?>

<!-- generated on 2020年06月29日 星期一 15时41分10秒 by Eclipse SUMO GUI Version 1.6.0
<configuration xmlns:xsi="http://www.w3.org/2001/XMLSchema-instance" xsi:noNamespaceSchemaLocation="http://sumo.dlr.de/xsd/sumoConfiguration.xsd">

    <input>
        <net-file value="data/single_intersection.net.xml"/>
        <route-files value="data/test.rou.xml"/>
    </input>

    <output>
        <tripinfo-output value="tripinfo.xml"/>
    </output>

    <time>
        <begin value="0"/>
    </time>

    <processing>
        <lateral-resolution value="0.64"/>
        <waiting-time-memory value="60"/>
    </processing>

    <report>
        <verbose value="true"/>
        <no-step-log value="true"/>
    </report>

    <gui_only>
        <start value="true"/>
    </gui_only>

</configuration>
-->

<tripinfos xmlns:xsi="http://www.w3.org/2001/XMLSchema-instance" xsi:noNamespaceSchemaLocation="http://sumo.dlr.de/xsd/tripinfo_file.xsd">
    <tripinfo id="4" depart="6.00" departLane="54o_0" departPos="2.30" departPosLat="0.00" departSpeed="0.00" departDelay="1.00" arrival="28.00" arrivalLane="51i_2" arrivalPos="10.00" arrivalPosLat="0.00" arrivalSpeed="14.36" duration="22.00" routeLength="236.17" waitingTime="0.00" waitingCount="0" stopTime="0.00" timeLoss="6.09" rerouteNo="0" devices="tripinfo_4" vType="type2" speedFactor="1.03" vaporized=""/>
    <tripinfo id="3" depart="5.00" departLane="54o_0" departPos="2.30" departPosLat="0.00" departSpeed="0.00" departDelay="0.00" arrival="29.00" arrivalLane="53i_0" arrivalPos="10.00" arrivalPosLat="0.00" arrivalSpeed="16.37" duration="24.00" routeLength="237.90" waitingTime="2.00" waitingCount="1" stopTime="0.00" timeLoss="7.79" rerouteNo="0" devices="tripinfo_3" vType="type2" speedFactor="1.08" vaporized=""/>
    <tripinfo id="5" depart="10.00" departLane="54o_0" departPos="2.30" departPosLat="0.00" departSpeed="0.00" departDelay="0.00" arrival="34.00" arrivalLane="52i_0" arrivalPos="10.00" arrivalPosLat="0.00" arrivalSpeed="10.58" duration="24.00" routeLength="220.20" waitingTime="0.00" waitingCount="0" stopTime="0.00" timeLoss="4.99" rerouteNo="0" devices="tripinfo_5" vType="type2" speedFactor="0.83" vaporized=""/>
    <tripinfo id="0" depart="5.00" departLane="51o_0" departPos="2.30" departPosLat="0.00" departSpeed="0.00" departDelay="0.00" arrival="37.00" arrivalLane="52i_0" arrivalPos="10.00" arrivalPosLat="0.00" arrivalSpeed="13.47" duration="32.00" routeLength="237.90" waitingTime="7.00" waitingCount="1" stopTime="0.00" timeLoss="15.95" rerouteNo="0" devices="tripinfo_0" vType="type2" speedFactor="1.06" vaporized=""/>
    <tripinfo id="12" depart="15.00" departLane="51o_0" departPos="5.10" departPosLat="0.00" departSpeed="0.00" departDelay="0.00" arrival="37.00" arrivalLane="52i_1" arrivalPos="10.00" arrivalPosLat="0.00" arrivalSpeed="13.43" duration="22.00" routeLength="235.10" waitingTime="0.00" waitingCount="0" stopTime="0.00" timeLoss="5.93" rerouteNo="0" devices="tripinfo_12" vType="type3" speedFactor="1.05" vaporized=""/>
    <tripinfo id="1" depart="6.00" departLane="51o_0" departPos="2.30" departPosLat="0.00" departSpeed="0.00" departDelay="1.00" arrival="38.00" arrivalLane="54i_0" arrivalPos="10.00" arrivalPosLat="0.00" arrivalSpeed="12.44" duration="32.00" routeLength="220.20" waitingTime="8.00" waitingCount="2" stopTime="0.00" timeLoss="15.33" rerouteNo="0" devices="tripinfo_1" vType="type2" speedFactor="0.94" vaporized=""/>
    <tripinfo id="2" depart="8.00" departLane="51o_0" departPos="2.30" departPosLat="0.00" departSpeed="0.00" departDelay="3.00" arrival="38.00" arrivalLane="53i_2" arrivalPos="10.00" arrivalPosLat="0.00" arrivalSpeed="11.45" duration="30.00" routeLength="236.17" waitingTime="5.00" waitingCount="1" stopTime="0.00" timeLoss="13.20" rerouteNo="0" devices="tripinfo_2" vType="type2" speedFactor="1.01" vaporized=""/>
    <tripinfo id="13" depart="18.00" departLane="51o_0" departPos="5.10" departPosLat="0.00" departSpeed="0.00" departDelay="3.00" arrival="40.00" arrivalLane="54i_0" arrivalPos="10.00" arrivalPosLat="0.00" arrivalSpeed="13.75" duration="22.00" routeLength="217.40" waitingTime="0.00" waitingCount="0" stopTime="0.00" timeLoss="8.22" rerouteNo="0" devices="tripinfo_13" vType="type3" speedFactor="1.12" vaporized=""/>
    <tripinfo id="10" depart="15.00" departLane="53o_0" departPos="5.10" departPosLat="0.00" departSpeed="0.00" departDelay="0.00" arrival="46.00" arrivalLane="51i_0" arrivalPos="10.00" arrivalPosLat="0.00" arrivalSpeed="13.43" duration="31.00" routeLength="217.40" waitingTime="4.00" waitingCount="1" stopTime="0.00" timeLoss="16.80" rerouteNo="0" devices="tripinfo_10" vType="type3" speedFactor="1.09" vaporized=""/>
    <tripinfo id="11" depart="18.00" departLane="53o_0" departPos="5.10" departPosLat="0.00" departSpeed="0.00" departDelay="3.00" arrival="47.00" arrivalLane="52i_2" arrivalPos="10.00" arrivalPosLat="0.00" arrivalSpeed="9.71" duration="29.00" routeLength="233.37" waitingTime="0.00" waitingCount="0" stopTime="0.00" timeLoss="13.01" rerouteNo="0" devices="tripinfo_11" vType="type3" speedFactor="1.03" vaporized=""/>
    <tripinfo id="21" depart="25.00" departLane="53o_0" departPos="5.10" departPosLat="0.00" departSpeed="0.00" departDelay="0.00" arrival="47.00" arrivalLane="54i_1" arrivalPos="10.00" arrivalPosLat="0.00" arrivalSpeed="11.90" duration="22.00" routeLength="235.10" waitingTime="0.00" waitingCount="0" stopTime="0.00" timeLoss="5.52" rerouteNo="0" devices="tripinfo_21" vType="type4" speedFactor="1.01" vaporized=""/>
    <tripinfo id="9" depart="10.00" departLane="53o_0" departPos="2.30" departPosLat="0.00" departSpeed="0.00" departDelay="0.00" arrival="48.00" arrivalLane="54i_0" arrivalPos="10.00" arrivalPosLat="0.00" arrivalSpeed="12.31" duration="38.00" routeLength="237.90" waitingTime="11.00" waitingCount="1" stopTime="0.00" timeLoss="18.39" rerouteNo="0" devices="tripinfo_9" vType="type2" speedFactor="0.86" vaporized=""/>
    <tripinfo id="22" depart="28.00" departLane="53o_0" departPos="5.10" departPosLat="0.00" departSpeed="0.00" departDelay="3.00" arrival="50.00" arrivalLane="51i_0" arrivalPos="10.00" arrivalPosLat="0.00" arrivalSpeed="11.10" duration="22.00" routeLength="217.40" waitingTime="0.00" waitingCount="0" stopTime="0.00" timeLoss="5.84" rerouteNo="0" devices="tripinfo_22" vType="type4" speedFactor="0.98" vaporized=""/>
    <tripinfo id="6" depart="10.00" departLane="52o_0" departPos="2.30" departPosLat="0.00" departSpeed="0.00" departDelay="0.00" arrival="53.00" arrivalLane="51i_0" arrivalPos="10.00" arrivalPosLat="0.00" arrivalSpeed="16.61" duration="43.00" routeLength="237.90" waitingTime="20.00" waitingCount="1" stopTime="0.00" timeLoss="26.69" rerouteNo="0" devices="tripinfo_6" vType="type2" speedFactor="1.05" vaporized=""/>
    <tripinfo id="7" depart="12.00" departLane="52o_0" departPos="2.30" departPosLat="0.00" departSpeed="0.00" departDelay="2.00" arrival="55.00" arrivalLane="54i_2" arrivalPos="10.00" arrivalPosLat="0.00" arrivalSpeed="13.24" duration="43.00" routeLength="236.17" waitingTime="17.00" waitingCount="1" stopTime="0.00" timeLoss="23.94" rerouteNo="0" devices="tripinfo_7" vType="type2" speedFactor="0.89" vaporized=""/>
    <tripinfo id="8" depart="13.00" departLane="52o_0" departPos="2.30" departPosLat="0.00" departSpeed="0.00" departDelay="3.00" arrival="55.00" arrivalLane="53i_0" arrivalPos="10.00" arrivalPosLat="0.00" arrivalSpeed="12.01" duration="42.00" routeLength="220.20" waitingTime="16.00" waitingCount="1" stopTime="0.00" timeLoss="25.67" rerouteNo="0" devices="tripinfo_8" vType="type2" speedFactor="0.94" vaporized=""/>
    <tripinfo id="18" depart="20.00" departLane="52o_0" departPos="5.10" departPosLat="0.00" departSpeed="0.00" departDelay="0.00" arrival="55.00" arrivalLane="51i_1" arrivalPos="10.00" arrivalPosLat="0.00" arrivalSpeed="11.79" duration="35.00" routeLength="235.10" waitingTime="7.00" waitingCount="1" stopTime="0.00" timeLoss="17.19" rerouteNo="0" devices="tripinfo_18" vType="type3" speedFactor="0.94" vaporized=""/>
    <tripinfo id="19" depart="23.00" departLane="52o_0" departPos="5.10" departPosLat="0.00" departSpeed="0.00" departDelay="3.00" arrival="57.00" arrivalLane="54i_2" arrivalPos="10.00" arrivalPosLat="0.00" arrivalSpeed="12.38" duration="34.00" routeLength="233.37" waitingTime="5.00" waitingCount="1" stopTime="0.00" timeLoss="19.71" rerouteNo="0" devices="tripinfo_19" vType="type3" speedFactor="1.16" vaporized=""/>
    <tripinfo id="20" depart="25.00" departLane="52o_0" departPos="5.10" departPosLat="0.00" departSpeed="0.00" departDelay="0.00" arrival="57.00" arrivalLane="53i_0" arrivalPos="10.00" arrivalPosLat="0.00" arrivalSpeed="11.59" duration="32.00" routeLength="217.40" waitingTime="3.00" waitingCount="1" stopTime="0.00" timeLoss="17.19" rerouteNo="0" devices="tripinfo_20" vType="type4" speedFactor="1.02" vaporized=""/>
    <tripinfo id="15" depart="20.00" departLane="54o_0" departPos="5.10" departPosLat="0.00" departSpeed="0.00" departDelay="0.00" arrival="63.00" arrivalLane="53i_0" arrivalPos="10.00" arrivalPosLat="0.00" arrivalSpeed="12.31" duration="43.00" routeLength="235.10" waitingTime="14.00" waitingCount="1" stopTime="0.00" timeLoss="25.27" rerouteNo="0" devices="tripinfo_15" vType="type3" speedFactor="0.93" vaporized=""/>
    <tripinfo id="17" depart="26.00" departLane="54o_0" departPos="5.10" departPosLat="0.00" departSpeed="0.00" departDelay="6.00" arrival="63.00" arrivalLane="52i_0" arrivalPos="10.00" arrivalPosLat="0.00" arrivalSpeed="11.68" duration="37.00" routeLength="217.40" waitingTime="9.00" waitingCount="1" stopTime="0.00" timeLoss="20.75" rerouteNo="0" devices="tripinfo_17" vType="type3" speedFactor="0.94" vaporized=""/>
    <tripinfo id="27" depart="30.00" departLane="54o_0" departPos="5.10" departPosLat="0.00" departSpeed="0.00" departDelay="0.00" arrival="63.00" arrivalLane="53i_1" arrivalPos="10.00" arrivalPosLat="0.00" arrivalSpeed="12.11" duration="33.00" routeLength="235.10" waitingTime="1.00" waitingCount="1" stopTime="0.00" timeLoss="15.49" rerouteNo="0" devices="tripinfo_27" vType="type4" speedFactor="0.95" vaporized=""/>
    <tripinfo id="16" depart="23.00" departLane="54o_0" departPos="5.10" departPosLat="0.00" departSpeed="0.00" departDelay="3.00" arrival="64.00" arrivalLane="51i_2" arrivalPos="10.00" arrivalPosLat="0.00" arrivalSpeed="10.66" duration="41.00" routeLength="233.37" waitingTime="11.00" waitingCount="1" stopTime="0.00" timeLoss="22.30" rerouteNo="0" devices="tripinfo_16" vType="type3" speedFactor="0.88" vaporized=""/>
    <tripinfo id="28" depart="33.00" departLane="54o_0" departPos="5.10" departPosLat="0.00" departSpeed="0.00" departDelay="3.00" arrival="66.00" arrivalLane="51i_2" arrivalPos="10.00" arrivalPosLat="0.00" arrivalSpeed="7.45" duration="33.00" routeLength="233.37" waitingTime="2.00" waitingCount="1" stopTime="0.00" timeLoss="18.68" rerouteNo="0" devices="tripinfo_28" vType="type4" speedFactor="1.13" vaporized=""/>
    <tripinfo id="29" depart="35.00" departLane="54o_0" departPos="5.10" departPosLat="0.00" departSpeed="0.00" departDelay="5.00" arrival="66.00" arrivalLane="52i_0" arrivalPos="10.00" arrivalPosLat="0.00" arrivalSpeed="10.89" duration="31.00" routeLength="217.40" waitingTime="2.00" waitingCount="1" stopTime="0.00" timeLoss="14.32" rerouteNo="0" devices="tripinfo_29" vType="type4" speedFactor="0.93" vaporized=""/>
    <tripinfo id="39" depart="40.00" departLane="54o_0" departPos="7.20" departPosLat="0.00" departSpeed="0.00" departDelay="0.00" arrival="67.00" arrivalLane="53i_1" arrivalPos="10.00" arrivalPosLat="0.00" arrivalSpeed="11.49" duration="27.00" routeLength="233.00" waitingTime="0.00" waitingCount="0" stopTime="0.00" timeLoss="9.60" rerouteNo="0" devices="tripinfo_39" vType="type5" speedFactor="0.95" vaporized=""/>
    <tripinfo id="14" depart="21.00" departLane="51o_0" departPos="5.10" departPosLat="0.00" departSpeed="0.00" departDelay="6.00" arrival="70.00" arrivalLane="53i_2" arrivalPos="10.00" arrivalPosLat="0.00" arrivalSpeed="11.44" duration="49.00" routeLength="233.37" waitingTime="24.00" waitingCount="1" stopTime="0.00" timeLoss="32.61" rerouteNo="0" devices="tripinfo_14" vType="type3" speedFactor="0.99" vaporized=""/>
    <tripinfo id="36" depart="40.00" departLane="51o_0" departPos="7.20" departPosLat="0.00" departSpeed="0.00" departDelay="0.00" arrival="71.00" arrivalLane="52i_1" arrivalPos="10.00" arrivalPosLat="0.00" arrivalSpeed="11.50" duration="31.00" routeLength="233.00" waitingTime="0.00" waitingCount="0" stopTime="0.00" timeLoss="14.09" rerouteNo="0" devices="tripinfo_36" vType="type5" speedFactor="0.99" vaporized=""/>
    <tripinfo id="24" depart="25.00" departLane="51o_0" departPos="5.10" departPosLat="0.00" departSpeed="0.00" departDelay="0.00" arrival="72.00" arrivalLane="52i_0" arrivalPos="10.00" arrivalPosLat="0.00" arrivalSpeed="10.84" duration="47.00" routeLength="235.10" waitingTime="16.00" waitingCount="1" stopTime="0.00" timeLoss="27.30" rerouteNo="0" devices="tripinfo_24" vType="type4" speedFactor="0.83" vaporized=""/>
    <tripinfo id="25" depart="30.00" departLane="51o_0" departPos="5.10" departPosLat="0.00" departSpeed="0.00" departDelay="0.00" arrival="72.00" arrivalLane="54i_0" arrivalPos="10.00" arrivalPosLat="0.00" arrivalSpeed="10.67" duration="42.00" routeLength="217.40" waitingTime="14.00" waitingCount="1" stopTime="0.00" timeLoss="24.52" rerouteNo="0" devices="tripinfo_25" vType="type4" speedFactor="0.87" vaporized=""/>
    <tripinfo id="26" depart="33.00" departLane="51o_0" departPos="5.10" departPosLat="0.00" departSpeed="0.00" departDelay="3.00" arrival="73.00" arrivalLane="53i_2" arrivalPos="10.00" arrivalPosLat="0.00" arrivalSpeed="11.19" duration="40.00" routeLength="233.37" waitingTime="11.00" waitingCount="1" stopTime="0.00" timeLoss="22.22" rerouteNo="0" devices="tripinfo_26" vType="type4" speedFactor="0.92" vaporized=""/>
    <tripinfo id="37" depart="44.00" departLane="51o_0" departPos="7.20" departPosLat="0.00" departSpeed="0.00" departDelay="4.00" arrival="74.00" arrivalLane="54i_0" arrivalPos="10.00" arrivalPosLat="0.00" arrivalSpeed="11.09" duration="30.00" routeLength="215.30" waitingTime="0.00" waitingCount="0" stopTime="0.00" timeLoss="16.04" rerouteNo="0" devices="tripinfo_37" vType="type5" speedFactor="1.09" vaporized=""/>
    <tripinfo id="45" depart="50.00" departLane="53o_0" departPos="10.00" departPosLat="0.00" departSpeed="0.00" departDelay="0.00" arrival="77.00" arrivalLane="54i_1" arrivalPos="10.00" arrivalPosLat="0.00" arrivalSpeed="11.36" duration="27.00" routeLength="230.20" waitingTime="0.00" waitingCount="0" stopTime="0.00" timeLoss="10.49" rerouteNo="0" devices="tripinfo_45" vType="type6" speedFactor="1.00" vaporized=""/>
    <tripinfo id="23" depart="31.00" departLane="53o_0" departPos="5.10" departPosLat="0.00" departSpeed="0.00" departDelay="6.00" arrival="79.00" arrivalLane="52i_2" arrivalPos="10.00" arrivalPosLat="0.00" arrivalSpeed="10.98" duration="48.00" routeLength="233.37" waitingTime="19.00" waitingCount="1" stopTime="0.00" timeLoss="29.50" rerouteNo="0" devices="tripinfo_23" vType="type4" speedFactor="0.89" vaporized=""/>
    <tripinfo id="33" depart="35.00" departLane="53o_0" departPos="7.20" departPosLat="0.00" departSpeed="0.00" departDelay="0.00" arrival="80.00" arrivalLane="54i_0" arrivalPos="10.00" arrivalPosLat="0.00" arrivalSpeed="11.80" duration="45.00" routeLength="233.00" waitingTime="11.00" waitingCount="1" stopTime="0.00" timeLoss="29.91" rerouteNo="0" devices="tripinfo_33" vType="type5" speedFactor="1.09" vaporized=""/>
    <tripinfo id="34" depart="40.00" departLane="53o_0" departPos="7.20" departPosLat="0.00" departSpeed="0.00" departDelay="5.00" arrival="81.00" arrivalLane="51i_0" arrivalPos="10.00" arrivalPosLat="0.00" arrivalSpeed="11.52" duration="41.00" routeLength="215.30" waitingTime="7.00" waitingCount="1" stopTime="0.00" timeLoss="25.92" rerouteNo="0" devices="tripinfo_34" vType="type5" speedFactor="1.00" vaporized=""/>
    <tripinfo id="35" depart="45.00" departLane="53o_0" departPos="7.20" departPosLat="0.00" departSpeed="0.00" departDelay="5.00" arrival="82.00" arrivalLane="52i_2" arrivalPos="10.00" arrivalPosLat="0.00" arrivalSpeed="11.10" duration="37.00" routeLength="231.27" waitingTime="3.00" waitingCount="1" stopTime="0.00" timeLoss="20.99" rerouteNo="0" devices="tripinfo_35" vType="type5" speedFactor="1.01" vaporized=""/>
    <tripinfo id="32" depart="44.00" departLane="52o_0" departPos="7.20" departPosLat="0.00" departSpeed="0.00" departDelay="9.00" arrival="87.00" arrivalLane="53i_0" arrivalPos="10.00" arrivalPosLat="0.00" arrivalSpeed="11.76" duration="43.00" routeLength="215.30" waitingTime="11.00" waitingCount="1" stopTime="0.00" timeLoss="28.17" rerouteNo="0" devices="tripinfo_32" vType="type5" speedFactor="1.00" vaporized=""/>
    <tripinfo id="30" depart="35.00" departLane="52o_0" departPos="7.20" departPosLat="0.00" departSpeed="0.00" departDelay="0.00" arrival="88.00" arrivalLane="51i_0" arrivalPos="10.00" arrivalPosLat="0.00" arrivalSpeed="11.45" duration="53.00" routeLength="233.00" waitingTime="19.00" waitingCount="1" stopTime="0.00" timeLoss="38.06" rerouteNo="0" devices="tripinfo_30" vType="type5" speedFactor="1.09" vaporized=""/>
    <tripinfo id="31" depart="39.00" departLane="52o_0" departPos="7.20" departPosLat="0.00" departSpeed="0.00" departDelay="4.00" arrival="89.00" arrivalLane="54i_2" arrivalPos="10.00" arrivalPosLat="0.00" arrivalSpeed="11.06" duration="50.00" routeLength="231.27" waitingTime="16.00" waitingCount="1" stopTime="0.00" timeLoss="35.04" rerouteNo="0" devices="tripinfo_31" vType="type5" speedFactor="1.08" vaporized=""/>
    <tripinfo id="43" depart="54.00" departLane="52o_0" departPos="10.00" departPosLat="0.00" departSpeed="0.00" departDelay="9.00" arrival="91.00" arrivalLane="54i_2" arrivalPos="10.00" arrivalPosLat="0.00" arrivalSpeed="11.17" duration="37.00" routeLength="228.47" waitingTime="3.00" waitingCount="1" stopTime="0.00" timeLoss="21.12" rerouteNo="0" devices="tripinfo_43" vType="type6" speedFactor="1.00" vaporized=""/>
    <tripinfo id="42" depart="49.00" departLane="52o_0" departPos="10.00" departPosLat="0.00" departSpeed="0.00" departDelay="4.00" arrival="92.00" arrivalLane="51i_0" arrivalPos="10.00" arrivalPosLat="0.00" arrivalSpeed="11.61" duration="43.00" routeLength="230.20" waitingTime="8.00" waitingCount="1" stopTime="0.00" timeLoss="26.50" rerouteNo="0" devices="tripinfo_42" vType="type6" speedFactor="1.00" vaporized=""/>
    <tripinfo id="63" depart="65.00" departLane="54o_0" departPos="2.30" departPosLat="0.00" departSpeed="0.00" departDelay="0.00" arrival="92.00" arrivalLane="53i_1" arrivalPos="10.00" arrivalPosLat="0.00" arrivalSpeed="15.23" duration="27.00" routeLength="237.90" waitingTime="3.00" waitingCount="1" stopTime="0.00" timeLoss="11.73" rerouteNo="0" devices="tripinfo_63" vType="type2" speedFactor="1.10" vaporized=""/>
    <tripinfo id="41" depart="48.00" departLane="54o_0" departPos="10.00" departPosLat="0.00" departSpeed="0.00" departDelay="3.00" arrival="96.00" arrivalLane="52i_0" arrivalPos="10.00" arrivalPosLat="0.00" arrivalSpeed="11.60" duration="48.00" routeLength="212.50" waitingTime="15.00" waitingCount="1" stopTime="0.00" timeLoss="33.20" rerouteNo="0" devices="tripinfo_41" vType="type6" speedFactor="1.00" vaporized=""/>
    <tripinfo id="40" depart="45.00" departLane="54o_0" departPos="10.00" departPosLat="0.00" departSpeed="0.00" departDelay="0.00" arrival="97.00" arrivalLane="51i_2" arrivalPos="10.00" arrivalPosLat="0.00" arrivalSpeed="7.08" duration="52.00" routeLength="228.47" waitingTime="18.00" waitingCount="1" stopTime="0.00" timeLoss="35.96" rerouteNo="0" devices="tripinfo_40" vType="type6" speedFactor="1.00" vaporized=""/>
    <tripinfo id="38" depart="49.00" departLane="51o_0" departPos="7.20" departPosLat="0.00" departSpeed="0.00" departDelay="9.00" arrival="104.00" arrivalLane="53i_2" arrivalPos="10.00" arrivalPosLat="0.00" arrivalSpeed="12.83" duration="55.00" routeLength="231.27" waitingTime="24.00" waitingCount="1" stopTime="0.00" timeLoss="39.57" rerouteNo="0" devices="tripinfo_38" vType="type5" speedFactor="1.05" vaporized=""/>
    <tripinfo id="49" depart="58.00" departLane="51o_0" departPos="10.00" departPosLat="0.00" departSpeed="0.00" departDelay="8.00" arrival="104.00" arrivalLane="54i_0" arrivalPos="10.00" arrivalPosLat="0.00" arrivalSpeed="11.51" duration="46.00" routeLength="212.50" waitingTime="13.00" waitingCount="1" stopTime="0.00" timeLoss="30.73" rerouteNo="0" devices="tripinfo_49" vType="type6" speedFactor="1.00" vaporized=""/>
    <tripinfo id="48" depart="53.00" departLane="51o_0" departPos="10.00" departPosLat="0.00" departSpeed="0.00" departDelay="3.00" arrival="106.00" arrivalLane="52i_1" arrivalPos="10.00" arrivalPosLat="0.00" arrivalSpeed="11.55" duration="53.00" routeLength="230.20" waitingTime="19.00" waitingCount="1" stopTime="0.00" timeLoss="37.03" rerouteNo="0" devices="tripinfo_48" vType="type6" speedFactor="1.00" vaporized=""/>
    <tripinfo id="53" depart="60.00" departLane="54o_0" departPos="1.70" departPosLat="0.00" departSpeed="0.00" departDelay="5.00" arrival="108.00" arrivalLane="52i_0" arrivalPos="10.00" arrivalPosLat="0.00" arrivalSpeed="5.40" duration="48.00" routeLength="220.80" waitingTime="1.00" waitingCount="1" stopTime="0.00" timeLoss="7.50" rerouteNo="0" devices="tripinfo_53" vType="type1" speedFactor="1.04" vaporized=""/>
    <tripinfo id="51" depart="55.00" departLane="54o_0" departPos="1.70" departPosLat="0.00" departSpeed="0.00" departDelay="0.00" arrival="109.00" arrivalLane="53i_0" arrivalPos="10.00" arrivalPosLat="0.00" arrivalSpeed="5.40" duration="54.00" routeLength="238.50" waitingTime="1.00" waitingCount="1" stopTime="0.00" timeLoss="10.13" rerouteNo="0" devices="tripinfo_51" vType="type1" speedFactor="0.96" vaporized=""/>
    <tripinfo id="60" depart="65.00" departLane="51o_0" departPos="2.30" departPosLat="0.00" departSpeed="0.00" departDelay="0.00" arrival="110.00" arrivalLane="52i_0" arrivalPos="10.00" arrivalPosLat="0.00" arrivalSpeed="13.75" duration="45.00" routeLength="237.90" waitingTime="11.00" waitingCount="1" stopTime="0.00" timeLoss="25.67" rerouteNo="0" devices="tripinfo_60" vType="type2" speedFactor="0.85" vaporized=""/>
    <tripinfo id="69" depart="73.00" departLane="53o_0" departPos="2.30" departPosLat="0.00" departSpeed="0.00" departDelay="3.00" arrival="110.00" arrivalLane="54i_1" arrivalPos="10.00" arrivalPosLat="0.00" arrivalSpeed="14.72" duration="37.00" routeLength="237.90" waitingTime="11.00" waitingCount="1" stopTime="0.00" timeLoss="19.66" rerouteNo="0" devices="tripinfo_69" vType="type2" speedFactor="0.97" vaporized=""/>
    <tripinfo id="52" depart="58.00" departLane="54o_0" departPos="1.70" departPosLat="0.00" departSpeed="0.00" departDelay="3.00" arrival="111.00" arrivalLane="51i_0" arrivalPos="10.00" arrivalPosLat="0.00" arrivalSpeed="5.41" duration="53.00" routeLength="236.77" waitingTime="0.00" waitingCount="0" stopTime="0.00" timeLoss="9.73" rerouteNo="0" devices="tripinfo_52" vType="type1" speedFactor="1.09" vaporized=""/>
    <tripinfo id="62" depart="68.00" departLane="51o_0" departPos="2.30" departPosLat="0.00" departSpeed="0.00" departDelay="3.00" arrival="112.00" arrivalLane="53i_2" arrivalPos="10.00" arrivalPosLat="0.00" arrivalSpeed="16.19" duration="44.00" routeLength="236.17" waitingTime="3.00" waitingCount="2" stopTime="0.00" timeLoss="27.12" rerouteNo="0" devices="tripinfo_62" vType="type2" speedFactor="1.02" vaporized=""/>
    <tripinfo id="46" depart="56.00" departLane="53o_0" departPos="10.00" departPosLat="0.00" departSpeed="0.00" departDelay="6.00" arrival="113.00" arrivalLane="51i_0" arrivalPos="10.00" arrivalPosLat="0.00" arrivalSpeed="8.48" duration="57.00" routeLength="212.50" waitingTime="23.00" waitingCount="1" stopTime="0.00" timeLoss="41.97" rerouteNo="0" devices="tripinfo_46" vType="type6" speedFactor="1.00" vaporized=""/>
    <tripinfo id="47" depart="62.00" departLane="53o_0" departPos="10.00" departPosLat="0.00" departSpeed="0.00" departDelay="12.00" arrival="114.00" arrivalLane="52i_2" arrivalPos="10.00" arrivalPosLat="0.00" arrivalSpeed="11.76" duration="52.00" routeLength="228.47" waitingTime="17.00" waitingCount="1" stopTime="0.00" timeLoss="36.35" rerouteNo="0" devices="tripinfo_47" vType="type6" speedFactor="1.00" vaporized=""/>
    <tripinfo id="81" depart="85.00" departLane="53o_0" departPos="5.10" departPosLat="0.00" departSpeed="0.00" departDelay="0.00" arrival="116.00" arrivalLane="54i_1" arrivalPos="10.00" arrivalPosLat="0.00" arrivalSpeed="12.56" duration="31.00" routeLength="235.10" waitingTime="0.00" waitingCount="0" stopTime="0.00" timeLoss="14.19" rerouteNo="0" devices="tripinfo_81" vType="type4" speedFactor="0.97" vaporized=""/>
    <tripinfo id="50" depart="61.00" departLane="51o_0" departPos="1.70" departPosLat="0.00" departSpeed="0.00" departDelay="6.00" arrival="117.00" arrivalLane="53i_0" arrivalPos="10.00" arrivalPosLat="0.00" arrivalSpeed="5.52" duration="56.00" routeLength="236.77" waitingTime="4.00" waitingCount="1" stopTime="0.00" timeLoss="13.13" rerouteNo="0" devices="tripinfo_50" vType="type1" speedFactor="1.03" vaporized=""/>
    <tripinfo id="44" depart="57.00" departLane="52o_0" departPos="10.00" departPosLat="0.00" departSpeed="0.00" departDelay="12.00" arrival="119.00" arrivalLane="53i_0" arrivalPos="10.00" arrivalPosLat="0.00" arrivalSpeed="11.63" duration="62.00" routeLength="212.50" waitingTime="23.00" waitingCount="2" stopTime="0.00" timeLoss="47.35" rerouteNo="0" devices="tripinfo_44" vType="type6" speedFactor="1.00" vaporized=""/>
    <tripinfo id="66" depart="70.00" departLane="52o_0" departPos="2.30" departPosLat="0.00" departSpeed="0.00" departDelay="0.00" arrival="121.00" arrivalLane="51i_1" arrivalPos="10.00" arrivalPosLat="-1.27" arrivalSpeed="12.93" duration="51.00" routeLength="237.90" waitingTime="26.00" waitingCount="1" stopTime="0.00" timeLoss="32.69" rerouteNo="0" devices="tripinfo_66" vType="type2" speedFactor="0.90" vaporized=""/>
    <tripinfo id="57" depart="65.00" departLane="53o_0" departPos="1.70" departPosLat="0.00" departSpeed="0.00" departDelay="5.00" arrival="124.00" arrivalLane="54i_0" arrivalPos="10.00" arrivalPosLat="0.00" arrivalSpeed="5.05" duration="59.00" routeLength="238.50" waitingTime="8.00" waitingCount="1" stopTime="0.00" timeLoss="15.87" rerouteNo="0" devices="tripinfo_57" vType="type1" speedFactor="0.90" vaporized=""/>
    <tripinfo id="58" depart="67.00" departLane="53o_0" departPos="1.70" departPosLat="0.00" departSpeed="0.00" departDelay="7.00" arrival="124.00" arrivalLane="51i_0" arrivalPos="10.00" arrivalPosLat="0.00" arrivalSpeed="5.42" duration="57.00" routeLength="220.80" waitingTime="7.00" waitingCount="1" stopTime="0.00" timeLoss="16.59" rerouteNo="0" devices="tripinfo_58" vType="type1" speedFactor="0.88" vaporized=""/>
    <tripinfo id="65" depart="70.00" departLane="54o_0" departPos="2.30" departPosLat="0.00" departSpeed="0.00" departDelay="0.00" arrival="124.00" arrivalLane="52i_0" arrivalPos="10.00" arrivalPosLat="0.00" arrivalSpeed="13.44" duration="54.00" routeLength="220.20" waitingTime="20.00" waitingCount="1" stopTime="0.00" timeLoss="38.43" rerouteNo="0" devices="tripinfo_65" vType="type2" speedFactor="1.00" vaporized=""/>
    <tripinfo id="67" depart="72.00" departLane="52o_0" departPos="2.30" departPosLat="0.00" departSpeed="0.00" departDelay="2.00" arrival="126.00" arrivalLane="54i_2" arrivalPos="10.00" arrivalPosLat="0.00" arrivalSpeed="13.84" duration="54.00" routeLength="236.17" waitingTime="12.00" waitingCount="1" stopTime="0.00" timeLoss="39.45" rerouteNo="0" devices="tripinfo_67" vType="type2" speedFactor="1.14" vaporized=""/>
    <tripinfo id="77" depart="85.00" departLane="54o_0" departPos="5.10" departPosLat="0.00" departSpeed="0.00" departDelay="5.00" arrival="127.00" arrivalLane="52i_0" arrivalPos="10.00" arrivalPosLat="0.00" arrivalSpeed="12.43" duration="42.00" routeLength="217.40" waitingTime="15.00" waitingCount="1" stopTime="0.00" timeLoss="24.59" rerouteNo="0" devices="tripinfo_77" vType="type3" speedFactor="0.91" vaporized=""/>
    <tripinfo id="59" depart="69.00" departLane="53o_0" departPos="1.70" departPosLat="0.00" departSpeed="0.00" departDelay="9.00" arrival="128.00" arrivalLane="52i_1" arrivalPos="10.00" arrivalPosLat="0.00" arrivalSpeed="5.07" duration="59.00" routeLength="236.77" waitingTime="5.00" waitingCount="1" stopTime="0.00" timeLoss="16.00" rerouteNo="0" devices="tripinfo_59" vType="type1" speedFactor="0.85" vaporized=""/>
    <tripinfo id="75" depart="80.00" departLane="54o_0" departPos="5.10" departPosLat="0.00" departSpeed="0.00" departDelay="0.00" arrival="128.00" arrivalLane="53i_1" arrivalPos="10.00" arrivalPosLat="0.00" arrivalSpeed="10.36" duration="48.00" routeLength="235.10" waitingTime="16.00" waitingCount="1" stopTime="0.00" timeLoss="29.21" rerouteNo="0" devices="tripinfo_75" vType="type3" speedFactor="0.88" vaporized=""/>
    <tripinfo id="89" depart="95.00" departLane="54o_0" departPos="5.10" departPosLat="0.00" departSpeed="0.00" departDelay="5.00" arrival="128.00" arrivalLane="52i_0" arrivalPos="10.00" arrivalPosLat="0.00" arrivalSpeed="11.58" duration="33.00" routeLength="217.40" waitingTime="6.00" waitingCount="1" stopTime="0.00" timeLoss="18.95" rerouteNo="0" devices="tripinfo_89" vType="type4" speedFactor="1.09" vaporized=""/>
    <tripinfo id="64" depart="67.00" departLane="54o_0" departPos="2.30" departPosLat="0.00" departSpeed="0.00" departDelay="2.00" arrival="129.00" arrivalLane="51i_2" arrivalPos="10.00" arrivalPosLat="0.00" arrivalSpeed="12.29" duration="62.00" routeLength="236.17" waitingTime="23.00" waitingCount="1" stopTime="0.00" timeLoss="45.22" rerouteNo="0" devices="tripinfo_64" vType="type2" speedFactor="1.00" vaporized=""/>